# vtk DataFile Version 3.0
FORCES      1
ASCII
DATASET POLYDATA
POINTS    1664 float
 0.297731E+00  0.549316E-02  0.135010E-01  0.297731E+00  0.549316E-02  0.135010E-01  0.297731E+00  0.549316E-02  0.135010E-01  0.297731E+00  0.549316E-02  0.135010E-01 
 0.277711E+00  0.376148E-02  0.131251E-01  0.277711E+00  0.376148E-02  0.131251E-01  0.277711E+00  0.376148E-02  0.131251E-01  0.277711E+00  0.376148E-02  0.131251E-01 
 0.258017E+00  0.220860E-01  0.179683E-01  0.260824E+00  0.220926E-01  0.179045E-01  0.260824E+00  0.193004E-01  0.176145E-01  0.258017E+00  0.192938E-01  0.176782E-01 
 0.257090E+00  0.352965E-01  0.373637E-01  0.259896E+00  0.353031E-01  0.373000E-01  0.259896E+00  0.325109E-01  0.370099E-01  0.257090E+00  0.325043E-01  0.370737E-01 
 0.274304E+00 -0.470116E-01  0.149566E-01  0.274304E+00 -0.470116E-01  0.149566E-01  0.274304E+00 -0.470116E-01  0.149566E-01  0.274304E+00 -0.470116E-01  0.149566E-01 
 0.283126E+00 -0.526710E-01  0.298507E-01  0.283126E+00 -0.526710E-01  0.298507E-01  0.283126E+00 -0.526710E-01  0.298507E-01  0.283126E+00 -0.526710E-01  0.298507E-01 
 0.293620E+00 -0.132149E+00  0.162884E-01  0.293639E+00 -0.132178E+00  0.162688E-01  0.293639E+00 -0.132155E+00  0.162364E-01  0.293620E+00 -0.132127E+00  0.162559E-01 
 0.269278E+00 -0.142200E+00  0.132398E-01  0.269297E+00 -0.142228E+00  0.132203E-01  0.269297E+00 -0.142206E+00  0.131878E-01  0.269278E+00 -0.142178E+00  0.132074E-01 
 0.998644E-01  0.828299E-01  0.136313E-01  0.998644E-01  0.828299E-01  0.136313E-01  0.998644E-01  0.828299E-01  0.136313E-01  0.998644E-01  0.828299E-01  0.136313E-01 
 0.103092E+00  0.730405E-01  0.357638E-01  0.103092E+00  0.730405E-01  0.357638E-01  0.103092E+00  0.730405E-01  0.357638E-01  0.103092E+00  0.730405E-01  0.357638E-01 
-0.117026E-01  0.118893E-01  0.122553E-01 -0.117023E-01  0.118895E-01  0.122555E-01 -0.117023E-01  0.118893E-01  0.122558E-01 -0.117026E-01  0.118891E-01  0.122556E-01 
-0.288909E-01  0.136009E-01  0.141378E-01 -0.288906E-01  0.136012E-01  0.141380E-01 -0.288906E-01  0.136010E-01  0.141383E-01 -0.288909E-01  0.136007E-01  0.141382E-01 
 0.131877E+00 -0.210977E+00  0.164484E-01  0.131888E+00 -0.210979E+00  0.164358E-01  0.131888E+00 -0.210995E+00  0.164373E-01  0.131877E+00 -0.210994E+00  0.164500E-01 
 0.143925E+00 -0.219597E+00  0.340333E-01  0.143936E+00 -0.219598E+00  0.340206E-01  0.143936E+00 -0.219615E+00  0.340222E-01  0.143925E+00 -0.219614E+00  0.340348E-01 
 0.131880E+00 -0.210984E+00  0.164423E-01  0.131884E+00 -0.210984E+00  0.164419E-01  0.131884E+00 -0.210988E+00  0.164434E-01  0.131880E+00 -0.210988E+00  0.164439E-01 
 0.142246E+00 -0.197584E+00  0.281612E-01  0.142251E+00 -0.197584E+00  0.281608E-01  0.142251E+00 -0.197588E+00  0.281624E-01  0.142246E+00 -0.197588E+00  0.281628E-01 
-0.239918E+00  0.298390E+00  0.159838E-01 -0.239917E+00  0.298391E+00  0.159831E-01 -0.239917E+00  0.298390E+00  0.159817E-01 -0.239918E+00  0.298389E+00  0.159824E-01 
-0.226574E+00  0.277931E+00  0.149253E-01 -0.226572E+00  0.277932E+00  0.149246E-01 -0.226572E+00  0.277931E+00  0.149232E-01 -0.226574E+00  0.277930E+00  0.149239E-01 
 0.179275E+00 -0.286194E+00  0.202169E-01  0.179445E+00 -0.285987E+00  0.201125E-01  0.179445E+00 -0.286116E+00  0.198555E-01  0.179275E+00 -0.286323E+00  0.199598E-01 
 0.190344E+00 -0.301090E+00  0.394353E-01  0.190514E+00 -0.300883E+00  0.393310E-01  0.190514E+00 -0.301012E+00  0.390739E-01  0.190344E+00 -0.301220E+00  0.391783E-01 
 0.179327E+00 -0.286121E+00  0.200475E-01  0.179393E+00 -0.286132E+00  0.200640E-01  0.179393E+00 -0.286189E+00  0.200248E-01  0.179327E+00 -0.286178E+00  0.200083E-01 
 0.166304E+00 -0.299601E+00  0.384997E-01  0.166371E+00 -0.299613E+00  0.385162E-01  0.166371E+00 -0.299670E+00  0.384771E-01  0.166304E+00 -0.299658E+00  0.384606E-01 
-0.398898E-01  0.841255E-01  0.151412E-01 -0.398824E-01  0.841340E-01  0.151356E-01 -0.398824E-01  0.841271E-01  0.151252E-01 -0.398898E-01  0.841186E-01  0.151307E-01 
-0.264851E-01  0.757299E-01  0.293562E-01 -0.264778E-01  0.757384E-01  0.293506E-01 -0.264778E-01  0.757315E-01  0.293401E-01 -0.264851E-01  0.757230E-01  0.293457E-01 
 0.804469E-01 -0.293980E+00  0.165397E-01  0.804469E-01 -0.293980E+00  0.165397E-01  0.804469E-01 -0.293980E+00  0.165397E-01  0.804469E-01 -0.293980E+00  0.165397E-01 
 0.795276E-01 -0.271204E+00  0.124508E-01  0.795276E-01 -0.271204E+00  0.124508E-01  0.795276E-01 -0.271204E+00  0.124508E-01  0.795276E-01 -0.271204E+00  0.124508E-01 
 0.776356E-01 -0.237857E+00  0.196250E-01  0.776356E-01 -0.237857E+00  0.196250E-01  0.776356E-01 -0.237857E+00  0.196250E-01  0.776356E-01 -0.237857E+00  0.196250E-01 
 0.806008E-01 -0.233831E+00  0.426321E-01  0.806008E-01 -0.233831E+00  0.426321E-01  0.806008E-01 -0.233831E+00  0.426321E-01  0.806008E-01 -0.233831E+00  0.426321E-01 
-0.299366E+00  0.886235E-01  0.176935E-01 -0.299363E+00  0.886234E-01  0.176940E-01 -0.299363E+00  0.886204E-01  0.176934E-01 -0.299366E+00  0.886205E-01  0.176929E-01 
-0.299876E+00  0.802002E-01  0.345995E-01 -0.299873E+00  0.802001E-01  0.346000E-01 -0.299873E+00  0.801971E-01  0.345995E-01 -0.299876E+00  0.801972E-01  0.345989E-01 
 0.974211E-02 -0.300323E+00  0.150451E-01  0.101622E-01 -0.300317E+00  0.150578E-01  0.101622E-01 -0.300699E+00  0.152330E-01  0.974211E-02 -0.300705E+00  0.152202E-01 
 0.149144E-01 -0.292336E+00  0.294210E-01  0.153344E-01 -0.292330E+00  0.294338E-01  0.153344E-01 -0.292712E+00  0.296089E-01  0.149144E-01 -0.292718E+00  0.295962E-01 
-0.254440E+00  0.792056E-01  0.208811E-01 -0.254440E+00  0.792056E-01  0.208811E-01 -0.254440E+00  0.792056E-01  0.208811E-01 -0.254440E+00  0.792056E-01  0.208811E-01 
-0.230118E+00  0.788027E-01  0.319152E-01 -0.230118E+00  0.788027E-01  0.319152E-01 -0.230118E+00  0.788027E-01  0.319152E-01 -0.230118E+00  0.788027E-01  0.319152E-01 
-0.960503E-01 -0.394409E-01  0.141799E-01 -0.960503E-01 -0.394409E-01  0.141799E-01 -0.960503E-01 -0.394409E-01  0.141799E-01 -0.960503E-01 -0.394409E-01  0.141799E-01 
-0.847442E-01 -0.446200E-01  0.304532E-01 -0.847442E-01 -0.446200E-01  0.304532E-01 -0.847442E-01 -0.446200E-01  0.304532E-01 -0.847442E-01 -0.446200E-01  0.304532E-01 
-0.296966E+00 -0.106687E-01  0.130217E-01 -0.296966E+00 -0.106687E-01  0.130217E-01 -0.296966E+00 -0.106687E-01  0.130217E-01 -0.296966E+00 -0.106687E-01  0.130217E-01 
-0.275735E+00 -0.116374E-01  0.122041E-01 -0.275735E+00 -0.116374E-01  0.122041E-01 -0.275735E+00 -0.116374E-01  0.122041E-01 -0.275735E+00 -0.116374E-01  0.122041E-01 
-0.238401E+00 -0.176322E-01  0.174732E-01 -0.238401E+00 -0.176322E-01  0.174732E-01 -0.238401E+00 -0.176322E-01  0.174732E-01 -0.238401E+00 -0.176322E-01  0.174732E-01 
-0.256426E+00 -0.156348E-01  0.369193E-01 -0.256426E+00 -0.156348E-01  0.369193E-01 -0.256426E+00 -0.156348E-01  0.369193E-01 -0.256426E+00 -0.156348E-01  0.369193E-01 
-0.146222E+00 -0.295205E+00  0.144266E-01 -0.146198E+00 -0.295227E+00  0.144315E-01 -0.146198E+00 -0.295220E+00  0.144637E-01 -0.146222E+00 -0.295198E+00  0.144588E-01 
-0.131120E+00 -0.273107E+00  0.150808E-01 -0.131097E+00 -0.273130E+00  0.150858E-01 -0.131097E+00 -0.273122E+00  0.151180E-01 -0.131120E+00 -0.273100E+00  0.151130E-01 
-0.187213E+00 -0.262570E+00  0.187425E-01 -0.187213E+00 -0.262570E+00  0.187425E-01 -0.187213E+00 -0.262570E+00  0.187425E-01 -0.187213E+00 -0.262570E+00  0.187425E-01 
-0.195305E+00 -0.255639E+00  0.467176E-01 -0.195305E+00 -0.255639E+00  0.467176E-01 -0.195305E+00 -0.255639E+00  0.467176E-01 -0.195305E+00 -0.255639E+00  0.467176E-01 
-0.269255E+00 -0.270413E+00  0.129545E-01 -0.269250E+00 -0.270425E+00  0.129663E-01 -0.269250E+00 -0.270437E+00  0.129544E-01 -0.269255E+00 -0.270426E+00  0.129425E-01 
-0.293725E+00 -0.272222E+00  0.179334E-01 -0.293721E+00 -0.272233E+00  0.179452E-01 -0.293721E+00 -0.272245E+00  0.179333E-01 -0.293725E+00 -0.272234E+00  0.179214E-01 
-0.532339E-01 -0.116773E+00  0.148244E-01 -0.532147E-01 -0.116768E+00  0.147967E-01 -0.532147E-01 -0.116802E+00  0.147910E-01 -0.532339E-01 -0.116807E+00  0.148187E-01 
-0.394290E-01 -0.119371E+00  0.338894E-01 -0.394097E-01 -0.119366E+00  0.338617E-01 -0.394097E-01 -0.119400E+00  0.338560E-01 -0.394290E-01 -0.119404E+00  0.338837E-01 
 0.280038E+00  0.172849E-01  0.299035E-01  0.280052E+00  0.172759E-01  0.299016E-01  0.280052E+00  0.172725E-01  0.299180E-01  0.280038E+00  0.172816E-01  0.299199E-01 
 0.298361E+00  0.214039E-01  0.399015E-01  0.298375E+00  0.213948E-01  0.398996E-01  0.298375E+00  0.213914E-01  0.399160E-01  0.298361E+00  0.214005E-01  0.399179E-01 
 0.273744E+00 -0.119412E+00  0.363654E-01  0.273774E+00 -0.119397E+00  0.364054E-01  0.273774E+00 -0.119348E+00  0.363880E-01  0.273744E+00 -0.119363E+00  0.363480E-01 
 0.298562E+00 -0.122236E+00  0.381666E-01  0.298591E+00 -0.122222E+00  0.382066E-01  0.298591E+00 -0.122173E+00  0.381892E-01  0.298562E+00 -0.122187E+00  0.381492E-01 
 0.280071E+00 -0.189658E+00  0.357052E-01  0.280083E+00 -0.189659E+00  0.356904E-01  0.280083E+00 -0.189678E+00  0.356913E-01  0.280071E+00 -0.189677E+00  0.357061E-01 
 0.293972E+00 -0.172296E+00  0.509845E-01  0.293984E+00 -0.172297E+00  0.509697E-01  0.293984E+00 -0.172316E+00  0.509706E-01  0.293972E+00 -0.172315E+00  0.509855E-01 
 0.291352E+00 -0.216487E+00  0.359258E-01  0.291364E+00 -0.216494E+00  0.359195E-01  0.291364E+00 -0.216504E+00  0.359315E-01  0.291352E+00 -0.216497E+00  0.359377E-01 
 0.301274E+00 -0.196330E+00  0.410690E-01  0.301286E+00 -0.196337E+00  0.410627E-01  0.301286E+00 -0.196347E+00  0.410746E-01  0.301274E+00 -0.196340E+00  0.410809E-01 
 0.272665E+00 -0.287538E+00  0.312704E-01  0.272665E+00 -0.287538E+00  0.312704E-01  0.272665E+00 -0.287538E+00  0.312704E-01  0.272665E+00 -0.287538E+00  0.312704E-01 
 0.287272E+00 -0.298662E+00  0.311169E-01  0.287272E+00 -0.298662E+00  0.311169E-01  0.287272E+00 -0.298662E+00  0.311169E-01  0.287272E+00 -0.298662E+00  0.311169E-01 
[...]
CELL_DATA    1248
FIELD FieldData   4
RN 1    1248 float
 0.000000E+00 0.000000E+00 0.000000E+00 0.000000E+00 0.000000E+00 0.000000E+00 0.323814E+01 0.323814E+01 0.323814E+01 0.323814E+01
 0.323814E+01 0.323814E+01 0.000000E+00 0.000000E+00 0.000000E+00 0.000000E+00 0.000000E+00 0.000000E+00 0.454745E-01 0.454745E-01
 0.454745E-01 0.454745E-01 0.454745E-01 0.454745E-01 0.000000E+00 0.000000E+00 0.000000E+00 0.000000E+00 0.000000E+00 0.000000E+00
 0.459208E-03 0.459208E-03 0.459208E-03 0.459208E-03 0.459208E-03 0.459208E-03 0.193077E-01 0.193077E-01 0.193077E-01 0.193077E-01
 0.193077E-01 0.193077E-01 0.504458E-02 0.504458E-02 0.504458E-02 0.504458E-02 0.504458E-02 0.504458E-02 0.205230E-02 0.205230E-02
 0.205230E-02 0.205230E-02 0.205230E-02 0.205230E-02 0.331939E+00 0.331939E+00 0.331939E+00 0.331939E+00 0.331939E+00 0.331939E+00
 0.797925E-01 0.797925E-01 0.797925E-01 0.797925E-01 0.797925E-01 0.797925E-01 0.144500E-01 0.144500E-01 0.144500E-01 0.144500E-01
 0.144500E-01 0.144500E-01 0.000000E+00 0.000000E+00 0.000000E+00 0.000000E+00 0.000000E+00 0.000000E+00 0.000000E+00 0.000000E+00
 0.000000E+00 0.000000E+00 0.000000E+00 0.000000E+00 0.350666E-02 0.350666E-02 0.350666E-02 0.350666E-02 0.350666E-02 0.350666E-02
 0.484811E+00 0.484811E+00 0.484811E+00 0.484811E+00 0.484811E+00 0.484811E+00 0.000000E+00 0.000000E+00 0.000000E+00 0.000000E+00
 0.000000E+00 0.000000E+00 0.000000E+00 0.000000E+00 0.000000E+00 0.000000E+00 0.000000E+00 0.000000E+00 0.000000E+00 0.000000E+00
 0.000000E+00 0.000000E+00 0.000000E+00 0.000000E+00 0.000000E+00 0.000000E+00 0.000000E+00 0.000000E+00 0.000000E+00 0.000000E+00
 0.380485E-01 0.380485E-01 0.380485E-01 0.380485E-01 0.380485E-01 0.380485E-01 0.000000E+00 0.000000E+00 0.000000E+00 0.000000E+00
 0.000000E+00 0.000000E+00 0.197914E-01 0.197914E-01 0.197914E-01 0.197914E-01 0.197914E-01 0.197914E-01 0.393203E-01 0.393203E-01
 0.393203E-01 0.393203E-01 0.393203E-01 0.393203E-01 0.193386E-01 0.193386E-01 0.193386E-01 0.193386E-01 0.193386E-01 0.193386E-01
 0.598793E-01 0.598793E-01 0.598793E-01 0.598793E-01 0.598793E-01 0.598793E-01 0.218713E-01 0.218713E-01 0.218713E-01 0.218713E-01
 0.218713E-01 0.218713E-01 0.178754E-01 0.178754E-01 0.178754E-01 0.178754E-01 0.178754E-01 0.178754E-01 0.000000E+00 0.000000E+00
 0.000000E+00 0.000000E+00 0.000000E+00 0.000000E+00 0.178733E-01 0.178733E-01 0.178733E-01 0.178733E-01 0.178733E-01 0.178733E-01
 0.000000E+00 0.000000E+00 0.000000E+00 0.000000E+00 0.000000E+00 0.000000E+00 0.000000E+00 0.000000E+00 0.000000E+00 0.000000E+00
 0.000000E+00 0.000000E+00 0.322908E+01 0.322908E+01 0.322908E+01 0.322908E+01 0.322908E+01 0.322908E+01 0.000000E+00 0.000000E+00
 0.000000E+00 0.000000E+00 0.000000E+00 0.000000E+00 0.000000E+00 0.000000E+00 0.000000E+00 0.000000E+00 0.000000E+00 0.000000E+00
 0.195279E-01 0.195279E-01 0.195279E-01 0.195279E-01 0.195279E-01 0.195279E-01 0.000000E+00 0.000000E+00 0.000000E+00 0.000000E+00
 0.000000E+00 0.000000E+00 0.000000E+00 0.000000E+00 0.000000E+00 0.000000E+00 0.000000E+00 0.000000E+00 0.745378E-02 0.745378E-02
 0.745378E-02 0.745378E-02 0.745378E-02 0.745378E-02 0.633603E-02 0.633603E-02 0.633603E-02 0.633603E-02 0.633603E-02 0.633603E-02
 0.402968E-02 0.402968E-02 0.402968E-02 0.402968E-02 0.402968E-02 0.402968E-02 0.363885E-01 0.363885E-01 0.363885E-01 0.363885E-01
 0.363885E-01 0.363885E-01 0.000000E+00 0.000000E+00 0.000000E+00 0.000000E+00 0.000000E+00 0.000000E+00 0.000000E+00 0.000000E+00
 0.000000E+00 0.000000E+00 0.000000E+00 0.000000E+00 0.310426E-01 0.310426E-01 0.310426E-01 0.310426E-01 0.310426E-01 0.310426E-01
 0.256895E-01 0.256895E-01 0.256895E-01 0.256895E-01 0.256895E-01 0.256895E-01 0.000000E+00 0.000000E+00 0.000000E+00 0.000000E+00
 0.000000E+00 0.000000E+00 0.000000E+00 0.000000E+00 0.000000E+00 0.000000E+00 0.000000E+00 0.000000E+00 0.667952E+00 0.667952E+00
 0.667952E+00 0.667952E+00 0.667952E+00 0.667952E+00 0.266455E-02 0.266455E-02 0.266455E-02 0.266455E-02 0.266455E-02 0.266455E-02
 0.000000E+00 0.000000E+00 0.000000E+00 0.000000E+00 0.000000E+00 0.000000E+00 0.000000E+00 0.000000E+00 0.000000E+00 0.000000E+00
 0.000000E+00 0.000000E+00 0.000000E+00 0.000000E+00 0.000000E+00 0.000000E+00 0.000000E+00 0.000000E+00 0.000000E+00 0.000000E+00
 0.000000E+00 0.000000E+00 0.000000E+00 0.000000E+00 0.390963E-01 0.390963E-01 0.390963E-01 0.390963E-01 0.390963E-01 0.390963E-01
 0.000000E+00 0.000000E+00 0.000000E+00 0.000000E+00 0.000000E+00 0.000000E+00 0.101691E-03 0.101691E-03 0.101691E-03 0.101691E-03
 0.101691E-03 0.101691E-03 0.000000E+00 0.000000E+00 0.000000E+00 0.000000E+00 0.000000E+00 0.000000E+00 0.166343E-01 0.166343E-01
 0.166343E-01 0.166343E-01 0.166343E-01 0.166343E-01 0.968865E-02 0.968865E-02 0.968865E-02 0.968865E-02 0.968865E-02 0.968865E-02
 0.000000E+00 0.000000E+00 0.000000E+00 0.000000E+00 0.000000E+00 0.000000E+00 0.853300E-02 0.853300E-02 0.853300E-02 0.853300E-02
 0.853300E-02 0.853300E-02 0.000000E+00 0.000000E+00 0.000000E+00 0.000000E+00 0.000000E+00 0.000000E+00 0.000000E+00 0.000000E+00
 0.000000E+00 0.000000E+00 0.000000E+00 0.000000E+00 0.000000E+00 0.000000E+00 0.000000E+00 0.000000E+00 0.000000E+00 0.000000E+00
 0.139700E-02 0.139700E-02 0.139700E-02 0.139700E-02 0.139700E-02 0.139700E-02 0.000000E+00 0.000000E+00 0.000000E+00 0.000000E+00
 0.000000E+00 0.000000E+00 0.132533E-01 0.132533E-01 0.132533E-01 0.132533E-01 0.132533E-01 0.132533E-01 0.000000E+00 0.000000E+00
 0.000000E+00 0.000000E+00 0.000000E+00 0.000000E+00 0.219418E-01 0.219418E-01 0.219418E-01 0.219418E-01 0.219418E-01 0.219418E-01
 0.447783E-02 0.447783E-02 0.447783E-02 0.447783E-02 0.447783E-02 0.447783E-02 0.000000E+00 0.000000E+00 0.000000E+00 0.000000E+00
 0.000000E+00 0.000000E+00 0.000000E+00 0.000000E+00 0.000000E+00 0.000000E+00 0.000000E+00 0.000000E+00 0.000000E+00 0.000000E+00
 0.000000E+00 0.000000E+00 0.000000E+00 0.000000E+00 0.000000E+00 0.000000E+00 0.000000E+00 0.000000E+00 0.000000E+00 0.000000E+00
 0.000000E+00 0.000000E+00 0.000000E+00 0.000000E+00 0.000000E+00 0.000000E+00 0.519699E-01 0.519699E-01 0.519699E-01 0.519699E-01
 0.519699E-01 0.519699E-01 0.000000E+00 0.000000E+00 0.000000E+00 0.000000E+00 0.000000E+00 0.000000E+00 0.000000E+00 0.000000E+00
 0.000000E+00 0.000000E+00 0.000000E+00 0.000000E+00 0.000000E+00 0.000000E+00 0.000000E+00 0.000000E+00 0.000000E+00 0.000000E+00
 0.204556E-01 0.204556E-01 0.204556E-01 0.204556E-01 0.204556E-01 0.204556E-01 0.000000E+00 0.000000E+00 0.000000E+00 0.000000E+00
 0.000000E+00 0.000000E+00 0.000000E+00 0.000000E+00 0.000000E+00 0.000000E+00 0.000000E+00 0.000000E+00 0.000000E+00 0.000000E+00
 0.000000E+00 0.000000E+00 0.000000E+00 0.000000E+00 0.000000E+00 0.000000E+00 0.000000E+00 0.000000E+00 0.000000E+00 0.000000E+00
 0.000000E+00 0.000000E+00 0.000000E+00 0.000000E+00 0.000000E+00 0.000000E+00 0.000000E+00 0.000000E+00 0.000000E+00 0.000000E+00
 0.000000E+00 0.000000E+00 0.000000E+00 0.000000E+00 0.000000E+00 0.000000E+00 0.000000E+00 0.000000E+00 0.000000E+00 0.000000E+00
 0.000000E+00 0.000000E+00 0.000000E+00 0.000000E+00 0.000000E+00 0.000000E+00 0.000000E+00 0.000000E+00 0.000000E+00 0.000000E+00
 0.136183E-01 0.136183E-01 0.136183E-01 0.136183E-01 0.136183E-01 0.136183E-01 0.000000E+00 0.000000E+00 0.000000E+00 0.000000E+00
 0.000000E+00 0.000000E+00 0.915643E-01 0.915643E-01 0.915643E-01 0.915643E-01 0.915643E-01 0.915643E-01 0.197294E-01 0.197294E-01
 0.197294E-01 0.197294E-01 0.197294E-01 0.197294E-01 0.000000E+00 0.000000E+00 0.000000E+00 0.000000E+00 0.000000E+00 0.000000E+00
 0.000000E+00 0.000000E+00 0.000000E+00 0.000000E+00 0.000000E+00 0.000000E+00 0.000000E+00 0.000000E+00 0.000000E+00 0.000000E+00
 0.000000E+00 0.000000E+00 0.000000E+00 0.000000E+00 0.000000E+00 0.000000E+00 0.000000E+00 0.000000E+00 0.000000E+00 0.000000E+00
 0.000000E+00 0.000000E+00 0.000000E+00 0.000000E+00 0.113902E-01 0.113902E-01 0.113902E-01 0.113902E-01 0.113902E-01 0.113902E-01
 0.699651E-02 0.699651E-02 0.699651E-02 0.699651E-02 0.699651E-02 0.699651E-02 0.000000E+00 0.000000E+00 0.000000E+00 0.000000E+00
 0.000000E+00 0.000000E+00 0.290323E-01 0.290323E-01 0.290323E-01 0.290323E-01 0.290323E-01 0.290323E-01 0.610494E-01 0.610494E-01
 0.610494E-01 0.610494E-01 0.610494E-01 0.610494E-01 0.000000E+00 0.000000E+00 0.000000E+00 0.000000E+00 0.000000E+00 0.000000E+00
 0.000000E+00 0.000000E+00 0.000000E+00 0.000000E+00 0.000000E+00 0.000000E+00 0.000000E+00 0.000000E+00 0.000000E+00 0.000000E+00
 0.000000E+00 0.000000E+00 0.000000E+00 0.000000E+00 0.000000E+00 0.000000E+00 0.000000E+00 0.000000E+00 0.337985E-01 0.337985E-01
 0.337985E-01 0.337985E-01 0.337985E-01 0.337985E-01 0.296293E-01 0.296293E-01 0.296293E-01 0.296293E-01 0.296293E-01 0.296293E-01
 0.000000E+00 0.000000E+00 0.000000E+00 0.000000E+00 0.000000E+00 0.000000E+00 0.000000E+00 0.000000E+00 0.000000E+00 0.000000E+00
 0.000000E+00 0.000000E+00 0.694301E-02 0.694301E-02 0.694301E-02 0.694301E-02 0.694301E-02 0.694301E-02 0.000000E+00 0.000000E+00
 0.000000E+00 0.000000E+00 0.000000E+00 0.000000E+00 0.000000E+00 0.000000E+00 0.000000E+00 0.000000E+00 0.000000E+00 0.000000E+00
 0.000000E+00 0.000000E+00 0.000000E+00 0.000000E+00 0.000000E+00 0.000000E+00 0.000000E+00 0.000000E+00 0.000000E+00 0.000000E+00
 0.000000E+00 0.000000E+00 0.000000E+00 0.000000E+00 0.000000E+00 0.000000E+00 0.000000E+00 0.000000E+00 0.000000E+00 0.000000E+00
 0.000000E+00 0.000000E+00 0.000000E+00 0.000000E+00 0.211330E-01 0.211330E-01 0.211330E-01 0.211330E-01 0.211330E-01 0.211330E-01
 0.263181E-01 0.263181E-01 0.263181E-01 0.263181E-01 0.263181E-01 0.263181E-01 0.000000E+00 0.000000E+00 0.000000E+00 0.000000E+00
 0.000000E+00 0.000000E+00 0.160114E-01 0.160114E-01 0.160114E-01 0.160114E-01 0.160114E-01 0.160114E-01 0.377159E+00 0.377159E+00
 0.377159E+00 0.377159E+00 0.377159E+00 0.377159E+00 0.000000E+00 0.000000E+00 0.000000E+00 0.000000E+00 0.000000E+00 0.000000E+00
 0.148942E-01 0.148942E-01 0.148942E-01 0.148942E-01 0.148942E-01 0.148942E-01 0.000000E+00 0.000000E+00 0.000000E+00 0.000000E+00
 0.000000E+00 0.000000E+00 0.506869E-02 0.506869E-02 0.506869E-02 0.506869E-02 0.506869E-02 0.506869E-02 0.000000E+00 0.000000E+00
 0.000000E+00 0.000000E+00 0.000000E+00 0.000000E+00 0.000000E+00 0.000000E+00 0.000000E+00 0.000000E+00 0.000000E+00 0.000000E+00
 0.355574E-01 0.355574E-01 0.355574E-01 0.355574E-01 0.355574E-01 0.355574E-01 0.590941E-02 0.590941E-02 0.590941E-02 0.590941E-02
 0.590941E-02 0.590941E-02 0.778619E-01 0.778619E-01 0.778619E-01 0.778619E-01 0.778619E-01 0.778619E-01 0.436072E-01 0.436072E-01
 0.436072E-01 0.436072E-01 0.436072E-01 0.436072E-01 0.000000E+00 0.000000E+00 0.000000E+00 0.000000E+00 0.000000E+00 0.000000E+00
 0.000000E+00 0.000000E+00 0.000000E+00 0.000000E+00 0.000000E+00 0.000000E+00 0.296274E-01 0.296274E-01 0.296274E-01 0.296274E-01
 0.296274E-01 0.296274E-01 0.124723E-01 0.124723E-01 0.124723E-01 0.124723E-01 0.124723E-01 0.124723E-01 0.000000E+00 0.000000E+00
 0.000000E+00 0.000000E+00 0.000000E+00 0.000000E+00 0.000000E+00 0.000000E+00 0.000000E+00 0.000000E+00 0.000000E+00 0.000000E+00
 0.178310E-01 0.178310E-01 0.178310E-01 0.178310E-01 0.178310E-01 0.178310E-01 0.144102E-01 0.144102E-01 0.144102E-01 0.144102E-01
 0.144102E-01 0.144102E-01 0.000000E+00 0.000000E+00 0.000000E+00 0.000000E+00 0.000000E+00 0.000000E+00 0.000000E+00 0.000000E+00
 0.000000E+00 0.000000E+00 0.000000E+00 0.000000E+00 0.374101E-01 0.374101E-01 0.374101E-01 0.374101E-01 0.374101E-01 0.374101E-01
 0.295459E-02 0.295459E-02 0.295459E-02 0.295459E-02 0.295459E-02 0.295459E-02 0.278044E-02 0.278044E-02 0.278044E-02 0.278044E-02
 0.278044E-02 0.278044E-02 0.000000E+00 0.000000E+00 0.000000E+00 0.000000E+00 0.000000E+00 0.000000E+00 0.000000E+00 0.000000E+00
 0.000000E+00 0.000000E+00 0.000000E+00 0.000000E+00 0.000000E+00 0.000000E+00 0.000000E+00 0.000000E+00 0.000000E+00 0.000000E+00
 0.354134E-01 0.354134E-01 0.354134E-01 0.354134E-01 0.354134E-01 0.354134E-01 0.565939E-02 0.565939E-02 0.565939E-02 0.565939E-02
 0.565939E-02 0.565939E-02 0.538983E-01 0.538983E-01 0.538983E-01 0.538983E-01 0.538983E-01 0.538983E-01 0.000000E+00 0.000000E+00
 0.000000E+00 0.000000E+00 0.000000E+00 0.000000E+00 0.296440E-02 0.296440E-02 0.296440E-02 0.296440E-02 0.296440E-02 0.296440E-02
 0.000000E+00 0.000000E+00 0.000000E+00 0.000000E+00 0.000000E+00 0.000000E+00 0.000000E+00 0.000000E+00 0.000000E+00 0.000000E+00
 0.000000E+00 0.000000E+00 0.105576E-01 0.105576E-01 0.105576E-01 0.105576E-01 0.105576E-01 0.105576E-01 0.965107E-01 0.965107E-01
 0.965107E-01 0.965107E-01 0.965107E-01 0.965107E-01 0.349158E+01 0.349158E+01 0.349158E+01 0.349158E+01 0.349158E+01 0.349158E+01
 0.000000E+00 0.000000E+00 0.000000E+00 0.000000E+00 0.000000E+00 0.000000E+00 0.563920E-02 0.563920E-02 0.563920E-02 0.563920E-02
 0.563920E-02 0.563920E-02 0.000000E+00 0.000000E+00 0.000000E+00 0.000000E+00 0.000000E+00 0.000000E+00 0.131025E-01 0.131025E-01
 0.131025E-01 0.131025E-01 0.131025E-01 0.131025E-01 0.254739E+00 0.254739E+00 0.254739E+00 0.254739E+00 0.254739E+00 0.254739E+00
 0.000000E+00 0.000000E+00 0.000000E+00 0.000000E+00 0.000000E+00 0.000000E+00 0.000000E+00 0.000000E+00 0.000000E+00 0.000000E+00
 0.000000E+00 0.000000E+00 0.000000E+00 0.000000E+00 0.000000E+00 0.000000E+00 0.000000E+00 0.000000E+00 0.000000E+00 0.000000E+00
 0.000000E+00 0.000000E+00 0.000000E+00 0.000000E+00 0.161811E-01 0.161811E-01 0.161811E-01 0.161811E-01 0.161811E-01 0.161811E-01
 0.000000E+00 0.000000E+00 0.000000E+00 0.000000E+00 0.000000E+00 0.000000E+00 0.000000E+00 0.000000E+00 0.000000E+00 0.000000E+00
 0.000000E+00 0.000000E+00 0.132710E-01 0.132710E-01 0.132710E-01 0.132710E-01 0.132710E-01 0.132710E-01 0.000000E+00 0.000000E+00
 0.000000E+00 0.000000E+00 0.000000E+00 0.000000E+00 0.000000E+00 0.000000E+00 0.000000E+00 0.000000E+00 0.000000E+00 0.000000E+00
 0.000000E+00 0.000000E+00 0.000000E+00 0.000000E+00 0.000000E+00 0.000000E+00 0.000000E+00 0.000000E+00 0.000000E+00 0.000000E+00
 0.000000E+00 0.000000E+00 0.265301E-01 0.265301E-01 0.265301E-01 0.265301E-01 0.265301E-01 0.265301E-01 0.000000E+00 0.000000E+00
 0.000000E+00 0.000000E+00 0.000000E+00 0.000000E+00 0.000000E+00 0.000000E+00 0.000000E+00 0.000000E+00 0.000000E+00 0.000000E+00
 0.255589E-01 0.255589E-01 0.255589E-01 0.255589E-01 0.255589E-01 0.255589E-01 0.285244E-01 0.285244E-01 0.285244E-01 0.285244E-01
 0.285244E-01 0.285244E-01 0.338289E-01 0.338289E-01 0.338289E-01 0.338289E-01 0.338289E-01 0.338289E-01 0.619232E-01 0.619232E-01
 0.619232E-01 0.619232E-01 0.619232E-01 0.619232E-01 0.000000E+00 0.000000E+00 0.000000E+00 0.000000E+00 0.000000E+00 0.000000E+00
 0.000000E+00 0.000000E+00 0.000000E+00 0.000000E+00 0.000000E+00 0.000000E+00 0.000000E+00 0.000000E+00 0.000000E+00 0.000000E+00
 0.000000E+00 0.000000E+00 0.185299E-01 0.185299E-01 0.185299E-01 0.185299E-01 0.185299E-01 0.185299E-01 0.000000E+00 0.000000E+00
 0.000000E+00 0.000000E+00 0.000000E+00 0.000000E+00 0.000000E+00 0.000000E+00 0.000000E+00 0.000000E+00 0.000000E+00 0.000000E+00
 0.217495E-01 0.217495E-01 0.217495E-01 0.217495E-01 0.217495E-01 0.217495E-01 0.255845E+00 0.255845E+00 0.255845E+00 0.255845E+00
 0.255845E+00 0.255845E+00 0.000000E+00 0.000000E+00 0.000000E+00 0.000000E+00 0.000000E+00 0.000000E+00 0.222787E-01 0.222787E-01
 0.222787E-01 0.222787E-01 0.222787E-01 0.222787E-01 0.000000E+00 0.000000E+00 0.000000E+00 0.000000E+00 0.000000E+00 0.000000E+00
 0.000000E+00 0.000000E+00 0.000000E+00 0.000000E+00 0.000000E+00 0.000000E+00 0.000000E+00 0.000000E+00 0.000000E+00 0.000000E+00
 0.000000E+00 0.000000E+00 0.000000E+00 0.000000E+00 0.000000E+00 0.000000E+00 0.000000E+00 0.000000E+00 0.420533E+01 0.420533E+01
 0.420533E+01 0.420533E+01 0.420533E+01 0.420533E+01 0.331175E-01 0.331175E-01 0.331175E-01 0.331175E-01 0.331175E-01 0.331175E-01
 0.000000E+00 0.000000E+00 0.000000E+00 0.000000E+00 0.000000E+00 0.000000E+00 0.189628E+00 0.189628E+00 0.189628E+00 0.189628E+00
 0.189628E+00 0.189628E+00 0.000000E+00 0.000000E+00 0.000000E+00 0.000000E+00 0.000000E+00 0.000000E+00 0.000000E+00 0.000000E+00
 0.000000E+00 0.000000E+00 0.000000E+00 0.000000E+00 0.272195E-01 0.272195E-01 0.272195E-01 0.272195E-01 0.272195E-01 0.272195E-01
 0.854960E-01 0.854960E-01 0.854960E-01 0.854960E-01 0.854960E-01 0.854960E-01 0.000000E+00 0.000000E+00 0.000000E+00 0.000000E+00
 0.000000E+00 0.000000E+00 0.695750E-02 0.695750E-02 0.695750E-02 0.695750E-02 0.695750E-02 0.695750E-02 
RT 1    1248 float
 0.000000E+00 0.000000E+00 0.000000E+00 0.000000E+00 0.000000E+00 0.000000E+00 0.129526E+01 0.129526E+01 0.129526E+01 0.129526E+01
 0.129526E+01 0.129526E+01 0.000000E+00 0.000000E+00 0.000000E+00 0.000000E+00 0.000000E+00 0.000000E+00 0.141833E-01 0.141833E-01
 0.141833E-01 0.141833E-01 0.141833E-01 0.141833E-01 0.000000E+00 0.000000E+00 0.000000E+00 0.000000E+00 0.000000E+00 0.000000E+00
 0.183683E-03 0.183683E-03 0.183683E-03 0.183683E-03 0.183683E-03 0.183683E-03 0.772309E-02 0.772309E-02 0.772309E-02 0.772309E-02
 0.772309E-02 0.772309E-02 0.201783E-02 0.201783E-02 0.201783E-02 0.201783E-02 0.201783E-02 0.201783E-02 0.820919E-03 0.820919E-03
 0.820919E-03 0.820919E-03 0.820919E-03 0.820919E-03 0.888813E-01 0.888813E-01 0.888813E-01 0.888813E-01 0.888813E-01 0.888813E-01
 0.319170E-01 0.319170E-01 0.319170E-01 0.319170E-01 0.319170E-01 0.319170E-01 0.578001E-02 0.578001E-02 0.578001E-02 0.578001E-02
 0.578001E-02 0.578001E-02 0.000000E+00 0.000000E+00 0.000000E+00 0.000000E+00 0.000000E+00 0.000000E+00 0.000000E+00 0.000000E+00
 0.000000E+00 0.000000E+00 0.000000E+00 0.000000E+00 0.140266E-02 0.140266E-02 0.140266E-02 0.140266E-02 0.140266E-02 0.140266E-02
 0.193924E+00 0.193924E+00 0.193924E+00 0.193924E+00 0.193924E+00 0.193924E+00 0.000000E+00 0.000000E+00 0.000000E+00 0.000000E+00
 0.000000E+00 0.000000E+00 0.000000E+00 0.000000E+00 0.000000E+00 0.000000E+00 0.000000E+00 0.000000E+00 0.000000E+00 0.000000E+00
 0.000000E+00 0.000000E+00 0.000000E+00 0.000000E+00 0.000000E+00 0.000000E+00 0.000000E+00 0.000000E+00 0.000000E+00 0.000000E+00
 0.152194E-01 0.152194E-01 0.152194E-01 0.152194E-01 0.152194E-01 0.152194E-01 0.000000E+00 0.000000E+00 0.000000E+00 0.000000E+00
 0.000000E+00 0.000000E+00 0.485721E-02 0.485721E-02 0.485721E-02 0.485721E-02 0.485721E-02 0.485721E-02 0.144464E-01 0.144464E-01
 0.144464E-01 0.144464E-01 0.144464E-01 0.144464E-01 0.773545E-02 0.773545E-02 0.773545E-02 0.773545E-02 0.773545E-02 0.773545E-02
 0.239517E-01 0.239517E-01 0.239517E-01 0.239517E-01 0.239517E-01 0.239517E-01 0.874853E-02 0.874853E-02 0.874853E-02 0.874853E-02
 0.874853E-02 0.874853E-02 0.715015E-02 0.715015E-02 0.715015E-02 0.715015E-02 0.715015E-02 0.715015E-02 0.000000E+00 0.000000E+00
 0.000000E+00 0.000000E+00 0.000000E+00 0.000000E+00 0.714933E-02 0.714933E-02 0.714933E-02 0.714933E-02 0.714933E-02 0.714933E-02
 0.000000E+00 0.000000E+00 0.000000E+00 0.000000E+00 0.000000E+00 0.000000E+00 0.000000E+00 0.000000E+00 0.000000E+00 0.000000E+00
 0.000000E+00 0.000000E+00 0.129163E+01 0.129163E+01 0.129163E+01 0.129163E+01 0.129163E+01 0.129163E+01 0.000000E+00 0.000000E+00
 0.000000E+00 0.000000E+00 0.000000E+00 0.000000E+00 0.000000E+00 0.000000E+00 0.000000E+00 0.000000E+00 0.000000E+00 0.000000E+00
 0.487332E-02 0.487332E-02 0.487332E-02 0.487332E-02 0.487332E-02 0.487332E-02 0.000000E+00 0.000000E+00 0.000000E+00 0.000000E+00
 0.000000E+00 0.000000E+00 0.000000E+00 0.000000E+00 0.000000E+00 0.000000E+00 0.000000E+00 0.000000E+00 0.298151E-02 0.298151E-02
 0.298151E-02 0.298151E-02 0.298151E-02 0.298151E-02 0.253441E-02 0.253441E-02 0.253441E-02 0.253441E-02 0.253441E-02 0.253441E-02
 0.161187E-02 0.161187E-02 0.161187E-02 0.161187E-02 0.161187E-02 0.161187E-02 0.145554E-01 0.145554E-01 0.145554E-01 0.145554E-01
 0.145554E-01 0.145554E-01 0.000000E+00 0.000000E+00 0.000000E+00 0.000000E+00 0.000000E+00 0.000000E+00 0.000000E+00 0.000000E+00
 0.000000E+00 0.000000E+00 0.000000E+00 0.000000E+00 0.124170E-01 0.124170E-01 0.124170E-01 0.124170E-01 0.124170E-01 0.124170E-01