# vtk DataFile Version 3.0
FORCES      2
ASCII
DATASET POLYDATA
POINTS   24416 float
 0.209363E+00  0.178796E+00  0.294270E-01  0.209363E+00  0.178796E+00  0.294270E-01  0.209363E+00  0.178796E+00  0.294270E-01  0.209363E+00  0.178796E+00  0.294270E-01 
 0.189346E+00  0.185815E+00  0.386368E-01  0.189346E+00  0.185815E+00  0.386368E-01  0.189346E+00  0.185815E+00  0.386368E-01  0.189346E+00  0.185815E+00  0.386368E-01 
 0.209363E+00  0.178796E+00  0.294270E-01  0.209363E+00  0.178796E+00  0.294270E-01  0.209363E+00  0.178796E+00  0.294270E-01  0.209363E+00  0.178796E+00  0.294270E-01 
 0.215974E+00  0.177714E+00  0.447456E-01  0.215974E+00  0.177714E+00  0.447456E-01  0.215974E+00  0.177714E+00  0.447456E-01  0.215974E+00  0.177714E+00  0.447456E-01 
 0.189346E+00  0.185815E+00  0.386368E-01  0.189346E+00  0.185815E+00  0.386368E-01  0.189346E+00  0.185815E+00  0.386368E-01  0.189346E+00  0.185815E+00  0.386368E-01 
 0.193065E+00  0.198129E+00  0.225676E-01  0.193065E+00  0.198129E+00  0.225676E-01  0.193065E+00  0.198129E+00  0.225676E-01  0.193065E+00  0.198129E+00  0.225676E-01 
 0.178293E+00  0.169879E+00  0.236756E-01  0.178293E+00  0.169879E+00  0.236756E-01  0.178293E+00  0.169879E+00  0.236756E-01  0.178293E+00  0.169879E+00  0.236756E-01 
 0.173515E+00  0.157416E+00  0.410694E-01  0.173515E+00  0.157416E+00  0.410694E-01  0.173515E+00  0.157416E+00  0.410694E-01  0.173515E+00  0.157416E+00  0.410694E-01 
 0.217171E+00  0.207811E+00  0.315916E-01  0.217192E+00  0.207810E+00  0.315885E-01  0.217192E+00  0.207828E+00  0.315784E-01  0.217171E+00  0.207830E+00  0.315815E-01 
 0.209307E+00  0.197801E+00  0.197891E-01  0.209328E+00  0.197800E+00  0.197859E-01  0.209328E+00  0.197819E+00  0.197758E-01  0.209307E+00  0.197820E+00  0.197790E-01 
 0.211077E+00  0.134788E+00  0.206811E-01  0.211079E+00  0.134788E+00  0.206824E-01  0.211079E+00  0.134785E+00  0.206828E-01  0.211077E+00  0.134785E+00  0.206815E-01 
 0.201031E+00  0.151410E+00  0.226601E-01  0.201033E+00  0.151410E+00  0.226614E-01  0.201033E+00  0.151407E+00  0.226619E-01  0.201031E+00  0.151407E+00  0.226606E-01 
 0.197390E+00  0.111699E+00  0.270525E-01  0.197408E+00  0.111699E+00  0.270531E-01  0.197408E+00  0.111681E+00  0.270577E-01  0.197390E+00  0.111681E+00  0.270571E-01 
 0.184684E+00  0.113406E+00  0.458999E-01  0.184703E+00  0.113406E+00  0.459005E-01  0.184703E+00  0.113388E+00  0.459051E-01  0.184684E+00  0.113388E+00  0.459045E-01 
 0.178407E+00  0.901713E-01  0.273210E-01  0.178407E+00  0.901713E-01  0.273210E-01  0.178407E+00  0.901713E-01  0.273210E-01  0.178407E+00  0.901713E-01  0.273210E-01 
 0.174542E+00  0.802982E-01  0.392884E-01  0.174542E+00  0.802982E-01  0.392884E-01  0.174542E+00  0.802982E-01  0.392884E-01  0.174542E+00  0.802982E-01  0.392884E-01 
 0.200144E+00  0.221498E+00  0.250431E-01  0.200153E+00  0.221498E+00  0.250419E-01  0.200153E+00  0.221489E+00  0.250447E-01  0.200144E+00  0.221489E+00  0.250460E-01 
 0.203401E+00  0.225790E+00  0.361398E-01  0.203411E+00  0.225789E+00  0.361385E-01  0.203411E+00  0.225780E+00  0.361413E-01  0.203401E+00  0.225780E+00  0.361426E-01 
 0.203178E+00  0.859269E-01  0.205328E-01  0.203192E+00  0.859269E-01  0.205328E-01  0.203192E+00  0.859128E-01  0.205328E-01  0.203178E+00  0.859128E-01  0.205328E-01 
 0.201024E+00  0.874474E-01  0.342565E-01  0.201038E+00  0.874474E-01  0.342565E-01  0.201038E+00  0.874333E-01  0.342565E-01  0.201024E+00  0.874333E-01  0.342565E-01 
 0.210207E+00  0.243425E+00  0.246903E-01  0.210207E+00  0.243425E+00  0.246903E-01  0.210207E+00  0.243425E+00  0.246903E-01  0.210207E+00  0.243425E+00  0.246903E-01 
 0.198193E+00  0.248026E+00  0.335861E-01  0.198193E+00  0.248026E+00  0.335861E-01  0.198193E+00  0.248026E+00  0.335861E-01  0.198193E+00  0.248026E+00  0.335861E-01 
 0.210207E+00  0.243425E+00  0.246903E-01  0.210207E+00  0.243425E+00  0.246903E-01  0.210207E+00  0.243425E+00  0.246903E-01  0.210207E+00  0.243425E+00  0.246903E-01 
 0.227583E+00  0.234015E+00  0.320351E-01  0.227583E+00  0.234015E+00  0.320351E-01  0.227583E+00  0.234015E+00  0.320351E-01  0.227583E+00  0.234015E+00  0.320351E-01 
 0.196360E+00  0.658565E-01  0.289149E-01  0.196360E+00  0.658565E-01  0.289149E-01  0.196360E+00  0.658565E-01  0.289149E-01  0.196360E+00  0.658565E-01  0.289149E-01 
 0.187135E+00  0.528789E-01  0.396149E-01  0.187135E+00  0.528789E-01  0.396149E-01  0.187135E+00  0.528789E-01  0.396149E-01  0.187135E+00  0.528789E-01  0.396149E-01 
 0.239326E+00  0.243187E+00  0.198364E-01  0.239326E+00  0.243187E+00  0.198364E-01  0.239326E+00  0.243187E+00  0.198364E-01  0.239326E+00  0.243187E+00  0.198364E-01 
 0.227583E+00  0.234015E+00  0.320351E-01  0.227583E+00  0.234015E+00  0.320351E-01  0.227583E+00  0.234015E+00  0.320351E-01  0.227583E+00  0.234015E+00  0.320351E-01 
 0.201031E+00  0.874404E-01  0.342565E-01  0.201031E+00  0.874404E-01  0.342565E-01  0.201031E+00  0.874404E-01  0.342565E-01  0.201031E+00  0.874404E-01  0.342565E-01 
 0.200282E+00  0.723950E-01  0.509521E-01  0.200282E+00  0.723950E-01  0.509521E-01  0.200282E+00  0.723950E-01  0.509521E-01  0.200282E+00  0.723950E-01  0.509521E-01 
 0.240038E+00  0.225245E+00  0.230803E-01  0.240038E+00  0.225245E+00  0.230803E-01  0.240038E+00  0.225245E+00  0.230803E-01  0.240038E+00  0.225245E+00  0.230803E-01 
 0.227583E+00  0.234015E+00  0.320351E-01  0.227583E+00  0.234015E+00  0.320351E-01  0.227583E+00  0.234015E+00  0.320351E-01  0.227583E+00  0.234015E+00  0.320351E-01 
 0.197832E+00  0.268028E+00  0.196215E-01  0.197832E+00  0.268028E+00  0.196215E-01  0.197832E+00  0.268028E+00  0.196215E-01  0.197832E+00  0.268028E+00  0.196215E-01 
 0.194416E+00  0.285433E+00  0.269312E-01  0.194416E+00  0.285433E+00  0.269312E-01  0.194416E+00  0.285433E+00  0.269312E-01  0.194416E+00  0.285433E+00  0.269312E-01 
 0.213364E+00  0.287169E+00  0.274650E-01  0.213374E+00  0.287180E+00  0.274838E-01  0.213374E+00  0.287159E+00  0.274960E-01  0.213364E+00  0.287148E+00  0.274772E-01 
 0.194411E+00  0.285438E+00  0.269157E-01  0.194421E+00  0.285449E+00  0.269345E-01  0.194421E+00  0.285428E+00  0.269467E-01  0.194411E+00  0.285417E+00  0.269279E-01 
 0.213369E+00  0.287164E+00  0.274805E-01  0.213369E+00  0.287164E+00  0.274805E-01  0.213369E+00  0.287164E+00  0.274805E-01  0.213369E+00  0.287164E+00  0.274805E-01 
 0.215218E+00  0.270808E+00  0.388652E-01  0.215218E+00  0.270808E+00  0.388652E-01  0.215218E+00  0.270808E+00  0.388652E-01  0.215218E+00  0.270808E+00  0.388652E-01 
 0.213369E+00  0.287164E+00  0.274805E-01  0.213369E+00  0.287164E+00  0.274805E-01  0.213369E+00  0.287164E+00  0.274805E-01  0.213369E+00  0.287164E+00  0.274805E-01 
 0.228365E+00  0.288556E+00  0.424833E-01  0.228365E+00  0.288556E+00  0.424833E-01  0.228365E+00  0.288556E+00  0.424833E-01  0.228365E+00  0.288556E+00  0.424833E-01 
 0.165380E+00  0.193333E+00  0.296739E-01  0.165380E+00  0.193333E+00  0.296739E-01  0.165380E+00  0.193333E+00  0.296739E-01  0.165380E+00  0.193333E+00  0.296739E-01 
 0.154901E+00  0.178853E+00  0.412426E-01  0.154901E+00  0.178853E+00  0.412426E-01  0.154901E+00  0.178853E+00  0.412426E-01  0.154901E+00  0.178853E+00  0.412426E-01 
 0.233003E+00  0.207256E+00  0.267030E-01  0.233003E+00  0.207255E+00  0.267027E-01  0.233003E+00  0.207255E+00  0.267028E-01  0.233003E+00  0.207255E+00  0.267031E-01 
 0.244232E+00  0.204515E+00  0.311132E-01  0.244232E+00  0.204515E+00  0.311130E-01  0.244232E+00  0.204515E+00  0.311131E-01  0.244232E+00  0.204515E+00  0.311134E-01 
 0.233531E+00  0.289932E+00  0.200996E-01  0.233576E+00  0.289932E+00  0.200743E-01  0.233576E+00  0.289880E+00  0.200740E-01  0.233531E+00  0.289880E+00  0.200993E-01 
 0.242903E+00  0.282015E+00  0.242980E-01  0.242949E+00  0.282015E+00  0.242726E-01  0.242949E+00  0.281963E+00  0.242723E-01  0.242903E+00  0.281963E+00  0.242976E-01 
 0.194416E+00  0.285433E+00  0.269312E-01  0.194416E+00  0.285433E+00  0.269312E-01  0.194416E+00  0.285433E+00  0.269312E-01  0.194416E+00  0.285433E+00  0.269312E-01 
 0.180597E+00  0.277109E+00  0.213540E-01  0.180597E+00  0.277109E+00  0.213540E-01  0.180597E+00  0.277109E+00  0.213540E-01  0.180597E+00  0.277109E+00  0.213540E-01 
 0.194416E+00  0.285433E+00  0.269312E-01  0.194416E+00  0.285433E+00  0.269312E-01  0.194416E+00  0.285433E+00  0.269312E-01  0.194416E+00  0.285433E+00  0.269312E-01 
 0.178369E+00  0.284474E+00  0.375038E-01  0.178369E+00  0.284474E+00  0.375038E-01  0.178369E+00  0.284474E+00  0.375038E-01  0.178369E+00  0.284474E+00  0.375038E-01 
 0.259514E+00  0.290881E+00  0.282715E-01  0.259612E+00  0.290836E+00  0.283058E-01  0.259612E+00  0.290768E+00  0.282171E-01  0.259514E+00  0.290812E+00  0.281828E-01 
 0.257099E+00  0.283527E+00  0.402038E-01  0.257196E+00  0.283483E+00  0.402380E-01  0.257196E+00  0.283414E+00  0.401493E-01  0.257099E+00  0.283458E+00  0.401150E-01 
 0.146626E+00  0.219404E+00  0.325173E-01  0.146626E+00  0.219404E+00  0.325173E-01  0.146626E+00  0.219404E+00  0.325173E-01  0.146626E+00  0.219404E+00  0.325173E-01 
 0.143039E+00  0.204087E+00  0.502001E-01  0.143039E+00  0.204087E+00  0.502001E-01  0.143039E+00  0.204087E+00  0.502001E-01  0.143039E+00  0.204087E+00  0.502001E-01 
 0.146626E+00  0.219404E+00  0.325173E-01  0.146626E+00  0.219404E+00  0.325173E-01  0.146626E+00  0.219404E+00  0.325173E-01  0.146626E+00  0.219404E+00  0.325173E-01 
 0.161414E+00  0.231378E+00  0.415043E-01  0.161414E+00  0.231378E+00  0.415043E-01  0.161414E+00  0.231378E+00  0.415043E-01  0.161414E+00  0.231378E+00  0.415043E-01 
 0.168713E+00  0.287744E+00  0.254394E-01  0.168715E+00  0.287744E+00  0.254395E-01  0.168715E+00  0.287743E+00  0.254376E-01  0.168713E+00  0.287743E+00  0.254375E-01 
 0.156034E+00  0.278212E+00  0.343050E-01  0.156036E+00  0.278212E+00  0.343052E-01  0.156036E+00  0.278211E+00  0.343032E-01  0.156034E+00  0.278211E+00  0.343031E-01 
[...]
CELL_DATA   18312
FIELD FieldData   4
RN 1   18312 float
 0.000000E+00 0.000000E+00 0.000000E+00 0.000000E+00 0.000000E+00 0.000000E+00 0.000000E+00 0.000000E+00 0.000000E+00 0.000000E+00
 0.000000E+00 0.000000E+00 0.000000E+00 0.000000E+00 0.000000E+00 0.000000E+00 0.000000E+00 0.000000E+00 0.000000E+00 0.000000E+00
 0.000000E+00 0.000000E+00 0.000000E+00 0.000000E+00 0.427887E-01 0.427887E-01 0.427887E-01 0.427887E-01 0.427887E-01 0.427887E-01
 0.577024E-02 0.577024E-02 0.577024E-02 0.577024E-02 0.577024E-02 0.577024E-02 0.370061E-01 0.370061E-01 0.370061E-01 0.370061E-01
 0.370061E-01 0.370061E-01 0.000000E+00 0.000000E+00 0.000000E+00 0.000000E+00 0.000000E+00 0.000000E+00 0.193019E-01 0.193019E-01
 0.193019E-01 0.193019E-01 0.193019E-01 0.193019E-01 0.280471E-01 0.280471E-01 0.280471E-01 0.280471E-01 0.280471E-01 0.280471E-01
 0.000000E+00 0.000000E+00 0.000000E+00 0.000000E+00 0.000000E+00 0.000000E+00 0.000000E+00 0.000000E+00 0.000000E+00 0.000000E+00
 0.000000E+00 0.000000E+00 0.000000E+00 0.000000E+00 0.000000E+00 0.000000E+00 0.000000E+00 0.000000E+00 0.000000E+00 0.000000E+00
 0.000000E+00 0.000000E+00 0.000000E+00 0.000000E+00 0.000000E+00 0.000000E+00 0.000000E+00 0.000000E+00 0.000000E+00 0.000000E+00
 0.000000E+00 0.000000E+00 0.000000E+00 0.000000E+00 0.000000E+00 0.000000E+00 0.000000E+00 0.000000E+00 0.000000E+00 0.000000E+00
 0.000000E+00 0.000000E+00 0.480204E-01 0.480204E-01 0.480204E-01 0.480204E-01 0.480204E-01 0.480204E-01 0.000000E+00 0.000000E+00
 0.000000E+00 0.000000E+00 0.000000E+00 0.000000E+00 0.000000E+00 0.000000E+00 0.000000E+00 0.000000E+00 0.000000E+00 0.000000E+00
 0.000000E+00 0.000000E+00 0.000000E+00 0.000000E+00 0.000000E+00 0.000000E+00 0.626488E-03 0.626488E-03 0.626488E-03 0.626488E-03
 0.626488E-03 0.626488E-03 0.103955E+00 0.103955E+00 0.103955E+00 0.103955E+00 0.103955E+00 0.103955E+00 0.000000E+00 0.000000E+00
 0.000000E+00 0.000000E+00 0.000000E+00 0.000000E+00 0.000000E+00 0.000000E+00 0.000000E+00 0.000000E+00 0.000000E+00 0.000000E+00
 0.224008E+00 0.224008E+00 0.224008E+00 0.224008E+00 0.224008E+00 0.224008E+00 0.000000E+00 0.000000E+00 0.000000E+00 0.000000E+00
 0.000000E+00 0.000000E+00 0.000000E+00 0.000000E+00 0.000000E+00 0.000000E+00 0.000000E+00 0.000000E+00 0.421982E-02 0.421982E-02
 0.421982E-02 0.421982E-02 0.421982E-02 0.421982E-02 0.801078E-02 0.801078E-02 0.801078E-02 0.801078E-02 0.801078E-02 0.801078E-02
 0.000000E+00 0.000000E+00 0.000000E+00 0.000000E+00 0.000000E+00 0.000000E+00 0.182939E-01 0.182939E-01 0.182939E-01 0.182939E-01
 0.182939E-01 0.182939E-01 0.000000E+00 0.000000E+00 0.000000E+00 0.000000E+00 0.000000E+00 0.000000E+00 0.254859E-02 0.254859E-02
 0.254859E-02 0.254859E-02 0.254859E-02 0.254859E-02 0.000000E+00 0.000000E+00 0.000000E+00 0.000000E+00 0.000000E+00 0.000000E+00
 0.359644E+00 0.359644E+00 0.359644E+00 0.359644E+00 0.359644E+00 0.359644E+00 0.412198E-01 0.412198E-01 0.412198E-01 0.412198E-01
 0.412198E-01 0.412198E-01 0.000000E+00 0.000000E+00 0.000000E+00 0.000000E+00 0.000000E+00 0.000000E+00 0.627144E+01 0.627144E+01
 0.627144E+01 0.627144E+01 0.627144E+01 0.627144E+01 0.553758E+00 0.553758E+00 0.553758E+00 0.553758E+00 0.553758E+00 0.553758E+00
 0.364643E-01 0.364643E-01 0.364643E-01 0.364643E-01 0.364643E-01 0.364643E-01 0.154502E-01 0.154502E-01 0.154502E-01 0.154502E-01
 0.154502E-01 0.154502E-01 0.122480E-02 0.122480E-02 0.122480E-02 0.122480E-02 0.122480E-02 0.122480E-02 0.128785E+01 0.128785E+01
 0.128785E+01 0.128785E+01 0.128785E+01 0.128785E+01 0.000000E+00 0.000000E+00 0.000000E+00 0.000000E+00 0.000000E+00 0.000000E+00
 0.587642E-01 0.587642E-01 0.587642E-01 0.587642E-01 0.587642E-01 0.587642E-01 0.000000E+00 0.000000E+00 0.000000E+00 0.000000E+00
 0.000000E+00 0.000000E+00 0.000000E+00 0.000000E+00 0.000000E+00 0.000000E+00 0.000000E+00 0.000000E+00 0.000000E+00 0.000000E+00
 0.000000E+00 0.000000E+00 0.000000E+00 0.000000E+00 0.000000E+00 0.000000E+00 0.000000E+00 0.000000E+00 0.000000E+00 0.000000E+00
 0.156106E+02 0.156106E+02 0.156106E+02 0.156106E+02 0.156106E+02 0.156106E+02 0.000000E+00 0.000000E+00 0.000000E+00 0.000000E+00
 0.000000E+00 0.000000E+00 0.436540E-01 0.436540E-01 0.436540E-01 0.436540E-01 0.436540E-01 0.436540E-01 0.000000E+00 0.000000E+00
 0.000000E+00 0.000000E+00 0.000000E+00 0.000000E+00 0.357315E+00 0.357315E+00 0.357315E+00 0.357315E+00 0.357315E+00 0.357315E+00
 0.000000E+00 0.000000E+00 0.000000E+00 0.000000E+00 0.000000E+00 0.000000E+00 0.000000E+00 0.000000E+00 0.000000E+00 0.000000E+00
 0.000000E+00 0.000000E+00 0.000000E+00 0.000000E+00 0.000000E+00 0.000000E+00 0.000000E+00 0.000000E+00 0.458434E-01 0.458434E-01
 0.458434E-01 0.458434E-01 0.458434E-01 0.458434E-01 0.137483E-01 0.137483E-01 0.137483E-01 0.137483E-01 0.137483E-01 0.137483E-01
 0.000000E+00 0.000000E+00 0.000000E+00 0.000000E+00 0.000000E+00 0.000000E+00 0.000000E+00 0.000000E+00 0.000000E+00 0.000000E+00
 0.000000E+00 0.000000E+00 0.000000E+00 0.000000E+00 0.000000E+00 0.000000E+00 0.000000E+00 0.000000E+00 0.000000E+00 0.000000E+00
 0.000000E+00 0.000000E+00 0.000000E+00 0.000000E+00 0.151563E+00 0.151563E+00 0.151563E+00 0.151563E+00 0.151563E+00 0.151563E+00
 0.000000E+00 0.000000E+00 0.000000E+00 0.000000E+00 0.000000E+00 0.000000E+00 0.000000E+00 0.000000E+00 0.000000E+00 0.000000E+00
 0.000000E+00 0.000000E+00 0.000000E+00 0.000000E+00 0.000000E+00 0.000000E+00 0.000000E+00 0.000000E+00 0.154427E+01 0.154427E+01
 0.154427E+01 0.154427E+01 0.154427E+01 0.154427E+01 0.901460E-01 0.901460E-01 0.901460E-01 0.901460E-01 0.901460E-01 0.901460E-01
 0.000000E+00 0.000000E+00 0.000000E+00 0.000000E+00 0.000000E+00 0.000000E+00 0.169794E+00 0.169794E+00 0.169794E+00 0.169794E+00
 0.169794E+00 0.169794E+00 0.745348E+00 0.745348E+00 0.745348E+00 0.745348E+00 0.745348E+00 0.745348E+00 0.744520E-01 0.744520E-01
 0.744520E-01 0.744520E-01 0.744520E-01 0.744520E-01 0.000000E+00 0.000000E+00 0.000000E+00 0.000000E+00 0.000000E+00 0.000000E+00
 0.000000E+00 0.000000E+00 0.000000E+00 0.000000E+00 0.000000E+00 0.000000E+00 0.000000E+00 0.000000E+00 0.000000E+00 0.000000E+00
 0.000000E+00 0.000000E+00 0.228602E-01 0.228602E-01 0.228602E-01 0.228602E-01 0.228602E-01 0.228602E-01 0.625311E-01 0.625311E-01
 0.625311E-01 0.625311E-01 0.625311E-01 0.625311E-01 0.816562E-01 0.816562E-01 0.816562E-01 0.816562E-01 0.816562E-01 0.816562E-01
 0.301093E-01 0.301093E-01 0.301093E-01 0.301093E-01 0.301093E-01 0.301093E-01 0.392053E-02 0.392053E-02 0.392053E-02 0.392053E-02
 0.392053E-02 0.392053E-02 0.000000E+00 0.000000E+00 0.000000E+00 0.000000E+00 0.000000E+00 0.000000E+00 0.000000E+00 0.000000E+00
 0.000000E+00 0.000000E+00 0.000000E+00 0.000000E+00 0.000000E+00 0.000000E+00 0.000000E+00 0.000000E+00 0.000000E+00 0.000000E+00
 0.244295E-01 0.244295E-01 0.244295E-01 0.244295E-01 0.244295E-01 0.244295E-01 0.000000E+00 0.000000E+00 0.000000E+00 0.000000E+00
 0.000000E+00 0.000000E+00 0.388551E-01 0.388551E-01 0.388551E-01 0.388551E-01 0.388551E-01 0.388551E-01 0.000000E+00 0.000000E+00
 0.000000E+00 0.000000E+00 0.000000E+00 0.000000E+00 0.130652E+00 0.130652E+00 0.130652E+00 0.130652E+00 0.130652E+00 0.130652E+00
 0.000000E+00 0.000000E+00 0.000000E+00 0.000000E+00 0.000000E+00 0.000000E+00 0.525064E-01 0.525064E-01 0.525064E-01 0.525064E-01
 0.525064E-01 0.525064E-01 0.372614E-01 0.372614E-01 0.372614E-01 0.372614E-01 0.372614E-01 0.372614E-01 0.000000E+00 0.000000E+00
 0.000000E+00 0.000000E+00 0.000000E+00 0.000000E+00 0.120515E+00 0.120515E+00 0.120515E+00 0.120515E+00 0.120515E+00 0.120515E+00
 0.000000E+00 0.000000E+00 0.000000E+00 0.000000E+00 0.000000E+00 0.000000E+00 0.251649E-01 0.251649E-01 0.251649E-01 0.251649E-01
 0.251649E-01 0.251649E-01 0.816418E-01 0.816418E-01 0.816418E-01 0.816418E-01 0.816418E-01 0.816418E-01 0.678170E-01 0.678170E-01
 0.678170E-01 0.678170E-01 0.678170E-01 0.678170E-01 0.000000E+00 0.000000E+00 0.000000E+00 0.000000E+00 0.000000E+00 0.000000E+00
 0.000000E+00 0.000000E+00 0.000000E+00 0.000000E+00 0.000000E+00 0.000000E+00 0.428727E+00 0.428727E+00 0.428727E+00 0.428727E+00
 0.428727E+00 0.428727E+00 0.000000E+00 0.000000E+00 0.000000E+00 0.000000E+00 0.000000E+00 0.000000E+00 0.000000E+00 0.000000E+00
 0.000000E+00 0.000000E+00 0.000000E+00 0.000000E+00 0.127093E-01 0.127093E-01 0.127093E-01 0.127093E-01 0.127093E-01 0.127093E-01
 0.000000E+00 0.000000E+00 0.000000E+00 0.000000E+00 0.000000E+00 0.000000E+00 0.000000E+00 0.000000E+00 0.000000E+00 0.000000E+00
 0.000000E+00 0.000000E+00 0.337596E-01 0.337596E-01 0.337596E-01 0.337596E-01 0.337596E-01 0.337596E-01 0.136668E+02 0.136668E+02
 0.136668E+02 0.136668E+02 0.136668E+02 0.136668E+02 0.000000E+00 0.000000E+00 0.000000E+00 0.000000E+00 0.000000E+00 0.000000E+00
 0.000000E+00 0.000000E+00 0.000000E+00 0.000000E+00 0.000000E+00 0.000000E+00 0.000000E+00 0.000000E+00 0.000000E+00 0.000000E+00
 0.000000E+00 0.000000E+00 0.000000E+00 0.000000E+00 0.000000E+00 0.000000E+00 0.000000E+00 0.000000E+00 0.000000E+00 0.000000E+00
 0.000000E+00 0.000000E+00 0.000000E+00 0.000000E+00 0.000000E+00 0.000000E+00 0.000000E+00 0.000000E+00 0.000000E+00 0.000000E+00
 0.000000E+00 0.000000E+00 0.000000E+00 0.000000E+00 0.000000E+00 0.000000E+00 0.000000E+00 0.000000E+00 0.000000E+00 0.000000E+00
 0.000000E+00 0.000000E+00 0.000000E+00 0.000000E+00 0.000000E+00 0.000000E+00 0.000000E+00 0.000000E+00 0.000000E+00 0.000000E+00
 0.000000E+00 0.000000E+00 0.000000E+00 0.000000E+00 0.000000E+00 0.000000E+00 0.000000E+00 0.000000E+00 0.000000E+00 0.000000E+00
 0.179726E-01 0.179726E-01 0.179726E-01 0.179726E-01 0.179726E-01 0.179726E-01 0.316838E-01 0.316838E-01 0.316838E-01 0.316838E-01
 0.316838E-01 0.316838E-01 0.391295E-01 0.391295E-01 0.391295E-01 0.391295E-01 0.391295E-01 0.391295E-01 0.000000E+00 0.000000E+00
 0.000000E+00 0.000000E+00 0.000000E+00 0.000000E+00 0.000000E+00 0.000000E+00 0.000000E+00 0.000000E+00 0.000000E+00 0.000000E+00
 0.266435E-02 0.266435E-02 0.266435E-02 0.266435E-02 0.266435E-02 0.266435E-02 0.000000E+00 0.000000E+00 0.000000E+00 0.000000E+00
 0.000000E+00 0.000000E+00 0.000000E+00 0.000000E+00 0.000000E+00 0.000000E+00 0.000000E+00 0.000000E+00 0.000000E+00 0.000000E+00
 0.000000E+00 0.000000E+00 0.000000E+00 0.000000E+00 0.970302E-02 0.970302E-02 0.970302E-02 0.970302E-02 0.970302E-02 0.970302E-02
 0.000000E+00 0.000000E+00 0.000000E+00 0.000000E+00 0.000000E+00 0.000000E+00 0.731537E+01 0.731537E+01 0.731537E+01 0.731537E+01
 0.731537E+01 0.731537E+01 0.490512E+00 0.490512E+00 0.490512E+00 0.490512E+00 0.490512E+00 0.490512E+00 0.101320E+01 0.101320E+01
 0.101320E+01 0.101320E+01 0.101320E+01 0.101320E+01 0.126972E-01 0.126972E-01 0.126972E-01 0.126972E-01 0.126972E-01 0.126972E-01
 0.000000E+00 0.000000E+00 0.000000E+00 0.000000E+00 0.000000E+00 0.000000E+00 0.000000E+00 0.000000E+00 0.000000E+00 0.000000E+00
 0.000000E+00 0.000000E+00 0.161277E+00 0.161277E+00 0.161277E+00 0.161277E+00 0.161277E+00 0.161277E+00 0.000000E+00 0.000000E+00
 0.000000E+00 0.000000E+00 0.000000E+00 0.000000E+00 0.123853E+00 0.123853E+00 0.123853E+00 0.123853E+00 0.123853E+00 0.123853E+00
 0.000000E+00 0.000000E+00 0.000000E+00 0.000000E+00 0.000000E+00 0.000000E+00 0.115154E+00 0.115154E+00 0.115154E+00 0.115154E+00
 0.115154E+00 0.115154E+00 0.000000E+00 0.000000E+00 0.000000E+00 0.000000E+00 0.000000E+00 0.000000E+00 0.000000E+00 0.000000E+00
 0.000000E+00 0.000000E+00 0.000000E+00 0.000000E+00 0.000000E+00 0.000000E+00 0.000000E+00 0.000000E+00 0.000000E+00 0.000000E+00
 0.000000E+00 0.000000E+00 0.000000E+00 0.000000E+00 0.000000E+00 0.000000E+00 0.000000E+00 0.000000E+00 0.000000E+00 0.000000E+00
 0.000000E+00 0.000000E+00 0.714092E+00 0.714092E+00 0.714092E+00 0.714092E+00 0.714092E+00 0.714092E+00 0.138118E+01 0.138118E+01
 0.138118E+01 0.138118E+01 0.138118E+01 0.138118E+01 0.477159E-01 0.477159E-01 0.477159E-01 0.477159E-01 0.477159E-01 0.477159E-01
 0.000000E+00 0.000000E+00 0.000000E+00 0.000000E+00 0.000000E+00 0.000000E+00 0.557482E-02 0.557482E-02 0.557482E-02 0.557482E-02
 0.557482E-02 0.557482E-02 0.000000E+00 0.000000E+00 0.000000E+00 0.000000E+00 0.000000E+00 0.000000E+00 0.000000E+00 0.000000E+00
 0.000000E+00 0.000000E+00 0.000000E+00 0.000000E+00 0.766680E-02 0.766680E-02 0.766680E-02 0.766680E-02 0.766680E-02 0.766680E-02
 0.000000E+00 0.000000E+00 0.000000E+00 0.000000E+00 0.000000E+00 0.000000E+00 0.496695E-02 0.496695E-02 0.496695E-02 0.496695E-02
 0.496695E-02 0.496695E-02 0.000000E+00 0.000000E+00 0.000000E+00 0.000000E+00 0.000000E+00 0.000000E+00 0.000000E+00 0.000000E+00
 0.000000E+00 0.000000E+00 0.000000E+00 0.000000E+00 0.217309E-01 0.217309E-01 0.217309E-01 0.217309E-01 0.217309E-01 0.217309E-01
 0.000000E+00 0.000000E+00 0.000000E+00 0.000000E+00 0.000000E+00 0.000000E+00 0.000000E+00 0.000000E+00 0.000000E+00 0.000000E+00
 0.000000E+00 0.000000E+00 0.130242E-01 0.130242E-01 0.130242E-01 0.130242E-01 0.130242E-01 0.130242E-01 0.642087E-01 0.642087E-01
 0.642087E-01 0.642087E-01 0.642087E-01 0.642087E-01 0.000000E+00 0.000000E+00 0.000000E+00 0.000000E+00 0.000000E+00 0.000000E+00
 0.000000E+00 0.000000E+00 0.000000E+00 0.000000E+00 0.000000E+00 0.000000E+00 0.000000E+00 0.000000E+00 0.000000E+00 0.000000E+00
 0.000000E+00 0.000000E+00 0.146642E-01 0.146642E-01 0.146642E-01 0.146642E-01 0.146642E-01 0.146642E-01 0.000000E+00 0.000000E+00
 0.000000E+00 0.000000E+00 0.000000E+00 0.000000E+00 0.405655E+00 0.405655E+00 0.405655E+00 0.405655E+00 0.405655E+00 0.405655E+00
 0.000000E+00 0.000000E+00 0.000000E+00 0.000000E+00 0.000000E+00 0.000000E+00 0.627453E-02 0.627453E-02 0.627453E-02 0.627453E-02
 0.627453E-02 0.627453E-02 0.000000E+00 0.000000E+00 0.000000E+00 0.000000E+00 0.000000E+00 0.000000E+00 0.000000E+00 0.000000E+00
 0.000000E+00 0.000000E+00 0.000000E+00 0.000000E+00 0.302338E-01 0.302338E-01 0.302338E-01 0.302338E-01 0.302338E-01 0.302338E-01
 0.000000E+00 0.000000E+00 0.000000E+00 0.000000E+00 0.000000E+00 0.000000E+00 0.000000E+00 0.000000E+00 0.000000E+00 0.000000E+00
 0.000000E+00 0.000000E+00 0.189957E-01 0.189957E-01 0.189957E-01 0.189957E-01 0.189957E-01 0.189957E-01 0.313656E-01 0.313656E-01
 0.313656E-01 0.313656E-01 0.313656E-01 0.313656E-01 0.497270E+00 0.497270E+00 0.497270E+00 0.497270E+00 0.497270E+00 0.497270E+00
 0.000000E+00 0.000000E+00 0.000000E+00 0.000000E+00 0.000000E+00 0.000000E+00 0.000000E+00 0.000000E+00 0.000000E+00 0.000000E+00
 0.000000E+00 0.000000E+00 0.158578E-01 0.158578E-01 0.158578E-01 0.158578E-01 0.158578E-01 0.158578E-01 0.000000E+00 0.000000E+00
 0.000000E+00 0.000000E+00 0.000000E+00 0.000000E+00 0.000000E+00 0.000000E+00 0.000000E+00 0.000000E+00 0.000000E+00 0.000000E+00
 0.000000E+00 0.000000E+00 0.000000E+00 0.000000E+00 0.000000E+00 0.000000E+00 0.000000E+00 0.000000E+00 0.000000E+00 0.000000E+00
 0.000000E+00 0.000000E+00 0.000000E+00 0.000000E+00 0.000000E+00 0.000000E+00 0.000000E+00 0.000000E+00 0.145454E-01 0.145454E-01
 0.145454E-01 0.145454E-01 0.145454E-01 0.145454E-01 0.282911E-01 0.282911E-01 0.282911E-01 0.282911E-01 0.282911E-01 0.282911E-01
 0.570058E-01 0.570058E-01 0.570058E-01 0.570058E-01 0.570058E-01 0.570058E-01 0.108835E-01 0.108835E-01 0.108835E-01 0.108835E-01
 0.108835E-01 0.108835E-01 0.268912E-01 0.268912E-01 0.268912E-01 0.268912E-01 0.268912E-01 0.268912E-01 0.000000E+00 0.000000E+00
 0.000000E+00 0.000000E+00 0.000000E+00 0.000000E+00 0.000000E+00 0.000000E+00 0.000000E+00 0.000000E+00 0.000000E+00 0.000000E+00
 0.000000E+00 0.000000E+00 0.000000E+00 0.000000E+00 0.000000E+00 0.000000E+00 0.000000E+00 0.000000E+00 0.000000E+00 0.000000E+00
 0.000000E+00 0.000000E+00 0.000000E+00 0.000000E+00 0.000000E+00 0.000000E+00 0.000000E+00 0.000000E+00 0.143335E-01 0.143335E-01
 0.143335E-01 0.143335E-01 0.143335E-01 0.143335E-01 0.000000E+00 0.000000E+00 0.000000E+00 0.000000E+00 0.000000E+00 0.000000E+00
 0.555332E-02 0.555332E-02 0.555332E-02 0.555332E-02 0.555332E-02 0.555332E-02 0.000000E+00 0.000000E+00 0.000000E+00 0.000000E+00
 0.000000E+00 0.000000E+00 0.000000E+00 0.000000E+00 0.000000E+00 0.000000E+00 0.000000E+00 0.000000E+00 0.000000E+00 0.000000E+00
 0.000000E+00 0.000000E+00 0.000000E+00 0.000000E+00 0.000000E+00 0.000000E+00 0.000000E+00 0.000000E+00 0.000000E+00 0.000000E+00
 0.546247E-01 0.546247E-01 0.546247E-01 0.546247E-01 0.546247E-01 0.546247E-01 0.000000E+00 0.000000E+00 0.000000E+00 0.000000E+00
 0.000000E+00 0.000000E+00 0.000000E+00 0.000000E+00 0.000000E+00 0.000000E+00 0.000000E+00 0.000000E+00 0.000000E+00 0.000000E+00
 0.000000E+00 0.000000E+00 0.000000E+00 0.000000E+00 0.174893E-01 0.174893E-01 0.174893E-01 0.174893E-01 0.174893E-01 0.174893E-01
 0.000000E+00 0.000000E+00 0.000000E+00 0.000000E+00 0.000000E+00 0.000000E+00 0.000000E+00 0.000000E+00 0.000000E+00 0.000000E+00
 0.000000E+00 0.000000E+00 0.133199E-01 0.133199E-01 0.133199E-01 0.133199E-01 0.133199E-01 0.133199E-01 0.000000E+00 0.000000E+00
 0.000000E+00 0.000000E+00 0.000000E+00 0.000000E+00 0.000000E+00 0.000000E+00 0.000000E+00 0.000000E+00 0.000000E+00 0.000000E+00
 0.945929E-01 0.945929E-01 0.945929E-01 0.945929E-01 0.945929E-01 0.945929E-01 0.000000E+00 0.000000E+00 0.000000E+00 0.000000E+00
 0.000000E+00 0.000000E+00 0.138586E+00 0.138586E+00 0.138586E+00 0.138586E+00 0.138586E+00 0.138586E+00 0.000000E+00 0.000000E+00
 0.000000E+00 0.000000E+00 0.000000E+00 0.000000E+00 0.000000E+00 0.000000E+00 0.000000E+00 0.000000E+00 0.000000E+00 0.000000E+00
 0.000000E+00 0.000000E+00 0.000000E+00 0.000000E+00 0.000000E+00 0.000000E+00 0.931665E-02 0.931665E-02 0.931665E-02 0.931665E-02
 0.931665E-02 0.931665E-02 0.317281E-02 0.317281E-02 0.317281E-02 0.317281E-02 0.317281E-02 0.317281E-02 0.000000E+00 0.000000E+00
 0.000000E+00 0.000000E+00 0.000000E+00 0.000000E+00 0.000000E+00 0.000000E+00 0.000000E+00 0.000000E+00 0.000000E+00 0.000000E+00
 0.111857E+00 0.111857E+00 0.111857E+00 0.111857E+00 0.111857E+00 0.111857E+00 0.000000E+00 0.000000E+00 0.000000E+00 0.000000E+00
 0.000000E+00 0.000000E+00 0.000000E+00 0.000000E+00 0.000000E+00 0.000000E+00 0.000000E+00 0.000000E+00 0.799290E-01 0.799290E-01
 0.799290E-01 0.799290E-01 0.799290E-01 0.799290E-01 0.000000E+00 0.000000E+00 0.000000E+00 0.000000E+00 0.000000E+00 0.000000E+00
 0.000000E+00 0.000000E+00 0.000000E+00 0.000000E+00 0.000000E+00 0.000000E+00 0.000000E+00 0.000000E+00 0.000000E+00 0.000000E+00
 0.000000E+00 0.000000E+00 0.000000E+00 0.000000E+00 0.000000E+00 0.000000E+00 0.000000E+00 0.000000E+00 0.434222E+00 0.434222E+00
 0.434222E+00 0.434222E+00 0.434222E+00 0.434222E+00 0.000000E+00 0.000000E+00 0.000000E+00 0.000000E+00 0.000000E+00 0.000000E+00
 0.720770E-01 0.720770E-01 0.720770E-01 0.720770E-01 0.720770E-01 0.720770E-01 0.000000E+00 0.000000E+00 0.000000E+00 0.000000E+00
 0.000000E+00 0.000000E+00 0.111259E-01 0.111259E-01 0.111259E-01 0.111259E-01 0.111259E-01 0.111259E-01 0.000000E+00 0.000000E+00
 0.000000E+00 0.000000E+00 0.000000E+00 0.000000E+00 0.148405E-01 0.148405E-01 0.148405E-01 0.148405E-01 0.148405E-01 0.148405E-01
 0.112154E-01 0.112154E-01 0.112154E-01 0.112154E-01 0.112154E-01 0.112154E-01 0.000000E+00 0.000000E+00 0.000000E+00 0.000000E+00
 0.000000E+00 0.000000E+00 0.346081E-01 0.346081E-01 0.346081E-01 0.346081E-01 0.346081E-01 0.346081E-01 0.000000E+00 0.000000E+00
 0.000000E+00 0.000000E+00 0.000000E+00 0.000000E+00 0.000000E+00 0.000000E+00 0.000000E+00 0.000000E+00 0.000000E+00 0.000000E+00
 0.501425E-01 0.501425E-01 0.501425E-01 0.501425E-01 0.501425E-01 0.501425E-01 0.000000E+00 0.000000E+00 0.000000E+00 0.000000E+00
 0.000000E+00 0.000000E+00 0.000000E+00 0.000000E+00 0.000000E+00 0.000000E+00 0.000000E+00 0.000000E+00 0.539563E-02 0.539563E-02
 0.539563E-02 0.539563E-02 0.539563E-02 0.539563E-02 0.000000E+00 0.000000E+00 0.000000E+00 0.000000E+00 0.000000E+00 0.000000E+00
 0.000000E+00 0.000000E+00 0.000000E+00 0.000000E+00 0.000000E+00 0.000000E+00 0.000000E+00 0.000000E+00 0.000000E+00 0.000000E+00
 0.000000E+00 0.000000E+00 0.000000E+00 0.000000E+00 0.000000E+00 0.000000E+00 0.000000E+00 0.000000E+00 0.194932E-01 0.194932E-01