<?xml version="1.0"?>
<VTKFile type="UnstructuredGrid" version="0.1" byte_order="BigEndian">
  <UnstructuredGrid>
    <Piece NumberOfPoints="           1" NumberOfCells="           1">
      <Points>
        <DataArray type="Float64" NumberOfComponents="3" Name="Point" format="ascii">
-0.631918802612547E-004 0.600794999968282E-002 0.749999799999933E+000
        </DataArray>
      </Points>
      <Cells>
        <DataArray type="Int32" Name="connectivity" format="ascii">
           0
        </DataArray>
        <DataArray type="Int32" Name="offsets" format="ascii">
           1
        </DataArray>
        <DataArray type="Int8" Name="types" format="ascii">
    1
        </DataArray>
      </Cells>
      <PointData>
        <DataArray type="Int32"  Name="Id" NumberOfComponents="1" format="ascii">
           1
        </DataArray>
        <DataArray type="Float64"  Name="displacement" NumberOfComponents="3" format="ascii">
-0.631918802612617E-004 0.600794999968280E-002-0.750000200000067E+000
        </DataArray>
        <DataArray type="Float64"  Name="velocity" NumberOfComponents="3" format="ascii">
 0.100004780096708E-012 0.401154424092231E-013 0.118544866457065E-012
        </DataArray>
        <DataArray type="Float64"  Name="Reac" NumberOfComponents="3" format="ascii">
-0.952872355329270E-006-0.519713826765221E-006-0.171379284922462E-005
        </DataArray>
        <DataArray type="Float64"  Name="Fext" NumberOfComponents="3" format="ascii">
 0.000000000000000E+000 0.000000000000000E+000 0.000000000000000E+000
        </DataArray>
        <DataArray type="Float64"  Name="alpha" NumberOfComponents="3" format="ascii">
 0.999999999999992E+000 0.100193904315395E-006-0.711550386359153E-007
        </DataArray>
        <DataArray type="Float64"  Name="beta" NumberOfComponents="3" format="ascii">
-0.100193916386887E-006 0.999999999999981E+000-0.169650570500000E-006
        </DataArray>
        <DataArray type="Float64"  Name="gamma" NumberOfComponents="3" format="ascii">
 0.711550216379609E-007 0.169650577629300E-006 0.999999999999983E+000
        </DataArray>
      </PointData>
    </Piece>
    <Piece NumberOfPoints="           1" NumberOfCells="           1">
      <Points>
        <DataArray type="Float64" NumberOfComponents="3" Name="Point" format="ascii">
-0.355342404846017E-005-0.342436304472149E-005 0.175000009999998E+001
        </DataArray>
      </Points>
      <Cells>
        <DataArray type="Int32" Name="connectivity" format="ascii">
           0
        </DataArray>
        <DataArray type="Int32" Name="offsets" format="ascii">
           1
        </DataArray>
        <DataArray type="Int8" Name="types" format="ascii">
    1
        </DataArray>
      </Cells>
      <PointData>
        <DataArray type="Int32"  Name="Id" NumberOfComponents="1" format="ascii">
           2
        </DataArray>
        <DataArray type="Float64"  Name="displacement" NumberOfComponents="3" format="ascii">
-0.355342404846711E-005-0.342436304473537E-005-0.749999900000024E+000
        </DataArray>
        <DataArray type="Float64"  Name="velocity" NumberOfComponents="3" format="ascii">
 0.100353732816019E-012 0.864199020746421E-013 0.133741793810516E-012
        </DataArray>
        <DataArray type="Float64"  Name="Reac" NumberOfComponents="3" format="ascii">
-0.100683720076099E-005-0.106547479856381E-005-0.189920876741230E-005
        </DataArray>
        <DataArray type="Float64"  Name="Fext" NumberOfComponents="3" format="ascii">
 0.000000000000000E+000 0.000000000000000E+000 0.000000000000000E+000
        </DataArray>
        <DataArray type="Float64"  Name="alpha" NumberOfComponents="3" format="ascii">
 0.999999999994598E+000 0.328220304647502E-005 0.175264144695484E-006
        </DataArray>
        <DataArray type="Float64"  Name="beta" NumberOfComponents="3" format="ascii">
-0.328220308747669E-005 0.999999999994586E+000 0.233942401979559E-006
        </DataArray>
        <DataArray type="Float64"  Name="gamma" NumberOfComponents="3" format="ascii">
-0.175263376848070E-006-0.233942977230812E-006 0.999999999999957E+000
        </DataArray>
      </PointData>
    </Piece>
    <Piece NumberOfPoints="           1" NumberOfCells="           1">
      <Points>
        <DataArray type="Float64" NumberOfComponents="3" Name="Point" format="ascii">
 0.000000000000000E+000 0.000000000000000E+000 0.000000000000000E+000
        </DataArray>
      </Points>
      <Cells>
        <DataArray type="Int32" Name="connectivity" format="ascii">
           0
        </DataArray>
        <DataArray type="Int32" Name="offsets" format="ascii">
           1
        </DataArray>
        <DataArray type="Int8" Name="types" format="ascii">
    1
        </DataArray>
      </Cells>
      <PointData>
        <DataArray type="Int32"  Name="Id" NumberOfComponents="1" format="ascii">
           3
        </DataArray>
        <DataArray type="Float64"  Name="displacement" NumberOfComponents="3" format="ascii">
 0.000000000000000E+000 0.000000000000000E+000 0.000000000000000E+000
        </DataArray>
        <DataArray type="Float64"  Name="velocity" NumberOfComponents="3" format="ascii">
 0.000000000000000E+000 0.000000000000000E+000 0.000000000000000E+000
        </DataArray>
        <DataArray type="Float64"  Name="Reac" NumberOfComponents="3" format="ascii">
 0.393265664215023E+002-0.357661018160259E+001-0.999999943365623E+002
        </DataArray>
        <DataArray type="Float64"  Name="Fext" NumberOfComponents="3" format="ascii">
 0.000000000000000E+000 0.000000000000000E+000 0.000000000000000E+000
        </DataArray>
        <DataArray type="Float64"  Name="alpha" NumberOfComponents="3" format="ascii">
 0.100000000000000E+001 0.411052900000000E-011 0.237390400000000E-009
        </DataArray>
        <DataArray type="Float64"  Name="beta" NumberOfComponents="3" format="ascii">
-0.411053008587164E-011 0.100000000000000E+001 0.457420200000000E-008
        </DataArray>
        <DataArray type="Float64"  Name="gamma" NumberOfComponents="3" format="ascii">
-0.237390399981198E-009-0.457420200000098E-008 0.100000000000000E+001
        </DataArray>
      </PointData>
    </Piece>
    <Piece NumberOfPoints="           1" NumberOfCells="           1">
      <Points>
        <DataArray type="Float64" NumberOfComponents="3" Name="Point" format="ascii">
 0.000000000000000E+000-0.225000000000000E+001 0.200000000000000E+001
        </DataArray>
      </Points>
      <Cells>
        <DataArray type="Int32" Name="connectivity" format="ascii">
           0
        </DataArray>
        <DataArray type="Int32" Name="offsets" format="ascii">
           1
        </DataArray>
        <DataArray type="Int8" Name="types" format="ascii">
    1
        </DataArray>
      </Cells>
      <PointData>
        <DataArray type="Int32"  Name="Id" NumberOfComponents="1" format="ascii">
           4
        </DataArray>
        <DataArray type="Float64"  Name="displacement" NumberOfComponents="3" format="ascii">
 0.000000000000000E+000 0.000000000000000E+000 0.000000000000000E+000
        </DataArray>
        <DataArray type="Float64"  Name="velocity" NumberOfComponents="3" format="ascii">
 0.000000000000000E+000 0.000000000000000E+000 0.000000000000000E+000
        </DataArray>
        <DataArray type="Float64"  Name="Reac" NumberOfComponents="3" format="ascii">
 0.000000000000000E+000 0.000000000000000E+000 0.000000000000000E+000
        </DataArray>
        <DataArray type="Float64"  Name="Fext" NumberOfComponents="3" format="ascii">
 0.000000000000000E+000 0.000000000000000E+000 0.000000000000000E+000
        </DataArray>
        <DataArray type="Float64"  Name="alpha" NumberOfComponents="3" format="ascii">
 0.100000000000000E+001 0.000000000000000E+000 0.000000000000000E+000
        </DataArray>
        <DataArray type="Float64"  Name="beta" NumberOfComponents="3" format="ascii">
 0.000000000000000E+000 0.612323400000000E-016-0.100000000000000E+001
        </DataArray>
        <DataArray type="Float64"  Name="gamma" NumberOfComponents="3" format="ascii">
 0.000000000000000E+000 0.100000000000000E+001 0.612323400000000E-016
        </DataArray>
      </PointData>
    </Piece>
    <Piece NumberOfPoints="           1" NumberOfCells="           1">
      <Points>
        <DataArray type="Float64" NumberOfComponents="3" Name="Point" format="ascii">
 0.000000000000000E+000 0.225000000000000E+001 0.200000000000000E+001
        </DataArray>
      </Points>
      <Cells>
        <DataArray type="Int32" Name="connectivity" format="ascii">
           0
        </DataArray>
        <DataArray type="Int32" Name="offsets" format="ascii">
           1
        </DataArray>
        <DataArray type="Int8" Name="types" format="ascii">
    1
        </DataArray>
      </Cells>
      <PointData>
        <DataArray type="Int32"  Name="Id" NumberOfComponents="1" format="ascii">
           5
        </DataArray>
        <DataArray type="Float64"  Name="displacement" NumberOfComponents="3" format="ascii">
 0.000000000000000E+000 0.000000000000000E+000 0.000000000000000E+000
        </DataArray>
        <DataArray type="Float64"  Name="velocity" NumberOfComponents="3" format="ascii">
 0.000000000000000E+000 0.000000000000000E+000 0.000000000000000E+000
        </DataArray>
        <DataArray type="Float64"  Name="Reac" NumberOfComponents="3" format="ascii">
 0.000000000000000E+000 0.000000000000000E+000 0.000000000000000E+000
        </DataArray>
        <DataArray type="Float64"  Name="Fext" NumberOfComponents="3" format="ascii">
 0.000000000000000E+000 0.000000000000000E+000 0.000000000000000E+000
        </DataArray>
        <DataArray type="Float64"  Name="alpha" NumberOfComponents="3" format="ascii">
 0.100000000000000E+001 0.162185200000000E-010 0.142553200000000E-010
        </DataArray>
        <DataArray type="Float64"  Name="beta" NumberOfComponents="3" format="ascii">
-0.142553200003793E-010 0.233839100000000E-010 0.100000000000000E+001
        </DataArray>
        <DataArray type="Float64"  Name="gamma" NumberOfComponents="3" format="ascii">
 0.162185199996667E-010-0.100000000000000E+001 0.233839100002312E-010
        </DataArray>
      </PointData>
    </Piece>
    <Piece NumberOfPoints="           1" NumberOfCells="           1">
      <Points>
        <DataArray type="Float64" NumberOfComponents="3" Name="Point" format="ascii">
 0.225000000000000E+001 0.000000000000000E+000 0.200000000000000E+001
        </DataArray>
      </Points>
      <Cells>
        <DataArray type="Int32" Name="connectivity" format="ascii">
           0
        </DataArray>
        <DataArray type="Int32" Name="offsets" format="ascii">
           1
        </DataArray>
        <DataArray type="Int8" Name="types" format="ascii">
    1
        </DataArray>
      </Cells>
      <PointData>
        <DataArray type="Int32"  Name="Id" NumberOfComponents="1" format="ascii">
           6
        </DataArray>
        <DataArray type="Float64"  Name="displacement" NumberOfComponents="3" format="ascii">
 0.000000000000000E+000 0.000000000000000E+000 0.000000000000000E+000
        </DataArray>
        <DataArray type="Float64"  Name="velocity" NumberOfComponents="3" format="ascii">
 0.000000000000000E+000 0.000000000000000E+000 0.000000000000000E+000
        </DataArray>
        <DataArray type="Float64"  Name="Reac" NumberOfComponents="3" format="ascii">
 0.000000000000000E+000 0.000000000000000E+000 0.000000000000000E+000
        </DataArray>
        <DataArray type="Float64"  Name="Fext" NumberOfComponents="3" format="ascii">
 0.000000000000000E+000 0.000000000000000E+000 0.000000000000000E+000
        </DataArray>
        <DataArray type="Float64"  Name="alpha" NumberOfComponents="3" format="ascii">
 0.612323400000000E-016 0.000000000000000E+000 0.100000000000000E+001
        </DataArray>
        <DataArray type="Float64"  Name="beta" NumberOfComponents="3" format="ascii">
 0.000000000000000E+000 0.100000000000000E+001 0.000000000000000E+000
        </DataArray>
        <DataArray type="Float64"  Name="gamma" NumberOfComponents="3" format="ascii">
-0.100000000000000E+001 0.000000000000000E+000 0.612323400000000E-016
        </DataArray>
      </PointData>
    </Piece>
    <Piece NumberOfPoints="           1" NumberOfCells="           1">
      <Points>
        <DataArray type="Float64" NumberOfComponents="3" Name="Point" format="ascii">
-0.225000000000000E+001 0.000000000000000E+000 0.200000000000000E+001
        </DataArray>
      </Points>
      <Cells>
        <DataArray type="Int32" Name="connectivity" format="ascii">
           0
        </DataArray>
        <DataArray type="Int32" Name="offsets" format="ascii">
           1
        </DataArray>
        <DataArray type="Int8" Name="types" format="ascii">
    1
        </DataArray>
      </Cells>
      <PointData>
        <DataArray type="Int32"  Name="Id" NumberOfComponents="1" format="ascii">
           7
        </DataArray>
        <DataArray type="Float64"  Name="displacement" NumberOfComponents="3" format="ascii">
 0.000000000000000E+000 0.000000000000000E+000 0.000000000000000E+000
        </DataArray>
        <DataArray type="Float64"  Name="velocity" NumberOfComponents="3" format="ascii">
 0.000000000000000E+000 0.000000000000000E+000 0.000000000000000E+000
        </DataArray>
        <DataArray type="Float64"  Name="Reac" NumberOfComponents="3" format="ascii">
 0.000000000000000E+000 0.000000000000000E+000 0.000000000000000E+000
        </DataArray>
        <DataArray type="Float64"  Name="Fext" NumberOfComponents="3" format="ascii">
 0.000000000000000E+000 0.000000000000000E+000 0.000000000000000E+000
        </DataArray>
        <DataArray type="Float64"  Name="alpha" NumberOfComponents="3" format="ascii">
 0.612323400000000E-016 0.000000000000000E+000-0.100000000000000E+001
        </DataArray>
        <DataArray type="Float64"  Name="beta" NumberOfComponents="3" format="ascii">
 0.000000000000000E+000 0.100000000000000E+001 0.000000000000000E+000
        </DataArray>
        <DataArray type="Float64"  Name="gamma" NumberOfComponents="3" format="ascii">
 0.100000000000000E+001 0.000000000000000E+000 0.612323400000000E-016
        </DataArray>
      </PointData>
    </Piece>
    <Piece NumberOfPoints="           1" NumberOfCells="           1">
      <Points>
        <DataArray type="Float64" NumberOfComponents="3" Name="Point" format="ascii">
 0.000000000000000E+000 0.000000000000000E+000 0.249999999999988E+001
        </DataArray>
      </Points>
      <Cells>
        <DataArray type="Int32" Name="connectivity" format="ascii">
           0
        </DataArray>
        <DataArray type="Int32" Name="offsets" format="ascii">
           1
        </DataArray>
        <DataArray type="Int8" Name="types" format="ascii">
    1
        </DataArray>
      </Cells>
      <PointData>
        <DataArray type="Int32"  Name="Id" NumberOfComponents="1" format="ascii">
           8
        </DataArray>
        <DataArray type="Float64"  Name="displacement" NumberOfComponents="3" format="ascii">
 0.000000000000000E+000 0.000000000000000E+000-0.150000000000012E+001
        </DataArray>
        <DataArray type="Float64"  Name="velocity" NumberOfComponents="3" format="ascii">
 0.000000000000000E+000 0.000000000000000E+000 0.179708393255472E-012
        </DataArray>
        <DataArray type="Float64"  Name="Reac" NumberOfComponents="3" format="ascii">
-0.393265644617928E+002 0.357661176679122E+001 0.999999979495639E+002
        </DataArray>
        <DataArray type="Float64"  Name="Fext" NumberOfComponents="3" format="ascii">
 0.000000000000000E+000 0.000000000000000E+000-0.100000000000000E+003
        </DataArray>
        <DataArray type="Float64"  Name="alpha" NumberOfComponents="3" format="ascii">
 0.100000000000000E+001 0.000000000000000E+000 0.000000000000000E+000
        </DataArray>
        <DataArray type="Float64"  Name="beta" NumberOfComponents="3" format="ascii">
 0.000000000000000E+000 0.100000000000000E+001 0.000000000000000E+000
        </DataArray>
        <DataArray type="Float64"  Name="gamma" NumberOfComponents="3" format="ascii">
 0.000000000000000E+000 0.000000000000000E+000 0.100000000000000E+001
        </DataArray>
      </PointData>
    </Piece>
  </UnstructuredGrid>
</VTKFile>
