<?xml version="1.0"?>
<VTKFile type="UnstructuredGrid" version="0.1" byte_order="BigEndian">
  <UnstructuredGrid>
    <Piece NumberOfPoints="           1" NumberOfCells="           1">
      <Points>
        <DataArray type="Float64" NumberOfComponents="3" Name="Point" format="ascii">
-0.631918802614936E-004 0.600794999968271E-002 0.749999799999933E+000
        </DataArray>
      </Points>
      <Cells>
        <DataArray type="Int32" Name="connectivity" format="ascii">
           0
        </DataArray>
        <DataArray type="Int32" Name="offsets" format="ascii">
           1
        </DataArray>
        <DataArray type="Int8" Name="types" format="ascii">
    1
        </DataArray>
      </Cells>
      <PointData>
        <DataArray type="Int32"  Name="Id" NumberOfComponents="1" format="ascii">
           1
        </DataArray>
        <DataArray type="Float64"  Name="displacement" NumberOfComponents="3" format="ascii">
-0.631918802615005E-004 0.600794999968269E-002-0.750000200000067E+000
        </DataArray>
        <DataArray type="Float64"  Name="velocity" NumberOfComponents="3" format="ascii">
 0.488579534401143E-012 0.222552380727865E-012 0.727918246580999E-012
        </DataArray>
        <DataArray type="Float64"  Name="Reac" NumberOfComponents="3" format="ascii">
-0.127975373526698E-004-0.525832118312649E-005-0.184818542701759E-004
        </DataArray>
        <DataArray type="Float64"  Name="Fext" NumberOfComponents="3" format="ascii">
 0.000000000000000E+000 0.000000000000000E+000 0.000000000000000E+000
        </DataArray>
        <DataArray type="Float64"  Name="alpha" NumberOfComponents="3" format="ascii">
 0.999999999999992E+000 0.100193904176375E-006-0.711550386254382E-007
        </DataArray>
        <DataArray type="Float64"  Name="beta" NumberOfComponents="3" format="ascii">
-0.100193916247867E-006 0.999999999999981E+000-0.169650570350820E-006
        </DataArray>
        <DataArray type="Float64"  Name="gamma" NumberOfComponents="3" format="ascii">
 0.711550216274838E-007 0.169650577480121E-006 0.999999999999983E+000
        </DataArray>
      </PointData>
    </Piece>
    <Piece NumberOfPoints="           1" NumberOfCells="           1">
      <Points>
        <DataArray type="Float64" NumberOfComponents="3" Name="Point" format="ascii">
-0.355342404871414E-005-0.342436304495637E-005 0.175000009999998E+001
        </DataArray>
      </Points>
      <Cells>
        <DataArray type="Int32" Name="connectivity" format="ascii">
           0
        </DataArray>
        <DataArray type="Int32" Name="offsets" format="ascii">
           1
        </DataArray>
        <DataArray type="Int8" Name="types" format="ascii">
    1
        </DataArray>
      </Cells>
      <PointData>
        <DataArray type="Int32"  Name="Id" NumberOfComponents="1" format="ascii">
           2
        </DataArray>
        <DataArray type="Float64"  Name="displacement" NumberOfComponents="3" format="ascii">
-0.355342404872108E-005-0.342436304497024E-005-0.749999900000024E+000
        </DataArray>
        <DataArray type="Float64"  Name="velocity" NumberOfComponents="3" format="ascii">
 0.545767885804892E-012 0.498858077933997E-012 0.803457391658307E-012
        </DataArray>
        <DataArray type="Float64"  Name="Reac" NumberOfComponents="3" format="ascii">
-0.154630806727619E-004-0.129134498134552E-004-0.202192116755195E-004
        </DataArray>
        <DataArray type="Float64"  Name="Fext" NumberOfComponents="3" format="ascii">
 0.000000000000000E+000 0.000000000000000E+000 0.000000000000000E+000
        </DataArray>
        <DataArray type="Float64"  Name="alpha" NumberOfComponents="3" format="ascii">
 0.999999999994598E+000 0.328220304633110E-005 0.175264144723375E-006
        </DataArray>
        <DataArray type="Float64"  Name="beta" NumberOfComponents="3" format="ascii">
-0.328220308733277E-005 0.999999999994586E+000 0.233942402073491E-006
        </DataArray>
        <DataArray type="Float64"  Name="gamma" NumberOfComponents="3" format="ascii">
-0.175263376875961E-006-0.233942977324744E-006 0.999999999999957E+000
        </DataArray>
      </PointData>
    </Piece>
    <Piece NumberOfPoints="           1" NumberOfCells="           1">
      <Points>
        <DataArray type="Float64" NumberOfComponents="3" Name="Point" format="ascii">
 0.000000000000000E+000 0.000000000000000E+000 0.000000000000000E+000
        </DataArray>
      </Points>
      <Cells>
        <DataArray type="Int32" Name="connectivity" format="ascii">
           0
        </DataArray>
        <DataArray type="Int32" Name="offsets" format="ascii">
           1
        </DataArray>
        <DataArray type="Int8" Name="types" format="ascii">
    1
        </DataArray>
      </Cells>
      <PointData>
        <DataArray type="Int32"  Name="Id" NumberOfComponents="1" format="ascii">
           3
        </DataArray>
        <DataArray type="Float64"  Name="displacement" NumberOfComponents="3" format="ascii">
 0.000000000000000E+000 0.000000000000000E+000 0.000000000000000E+000
        </DataArray>
        <DataArray type="Float64"  Name="velocity" NumberOfComponents="3" format="ascii">
 0.000000000000000E+000 0.000000000000000E+000 0.000000000000000E+000
        </DataArray>
        <DataArray type="Float64"  Name="Reac" NumberOfComponents="3" format="ascii">
 0.373622424139602E+002-0.779666441223508E+001-0.999999432943684E+002
        </DataArray>
        <DataArray type="Float64"  Name="Fext" NumberOfComponents="3" format="ascii">
 0.000000000000000E+000 0.000000000000000E+000 0.000000000000000E+000
        </DataArray>
        <DataArray type="Float64"  Name="alpha" NumberOfComponents="3" format="ascii">
 0.100000000000000E+001 0.411052900000000E-011 0.237390400000000E-009
        </DataArray>
        <DataArray type="Float64"  Name="beta" NumberOfComponents="3" format="ascii">
-0.411053008587164E-011 0.100000000000000E+001 0.457420200000000E-008
        </DataArray>
        <DataArray type="Float64"  Name="gamma" NumberOfComponents="3" format="ascii">
-0.237390399981198E-009-0.457420200000098E-008 0.100000000000000E+001
        </DataArray>
      </PointData>
    </Piece>
    <Piece NumberOfPoints="           1" NumberOfCells="           1">
      <Points>
        <DataArray type="Float64" NumberOfComponents="3" Name="Point" format="ascii">
 0.000000000000000E+000-0.225000000000000E+001 0.200000000000000E+001
        </DataArray>
      </Points>
      <Cells>
        <DataArray type="Int32" Name="connectivity" format="ascii">
           0
        </DataArray>
        <DataArray type="Int32" Name="offsets" format="ascii">
           1
        </DataArray>
        <DataArray type="Int8" Name="types" format="ascii">
    1
        </DataArray>
      </Cells>
      <PointData>
        <DataArray type="Int32"  Name="Id" NumberOfComponents="1" format="ascii">
           4
        </DataArray>
        <DataArray type="Float64"  Name="displacement" NumberOfComponents="3" format="ascii">
 0.000000000000000E+000 0.000000000000000E+000 0.000000000000000E+000
        </DataArray>
        <DataArray type="Float64"  Name="velocity" NumberOfComponents="3" format="ascii">
 0.000000000000000E+000 0.000000000000000E+000 0.000000000000000E+000
        </DataArray>
        <DataArray type="Float64"  Name="Reac" NumberOfComponents="3" format="ascii">
 0.000000000000000E+000 0.000000000000000E+000 0.000000000000000E+000
        </DataArray>
        <DataArray type="Float64"  Name="Fext" NumberOfComponents="3" format="ascii">
 0.000000000000000E+000 0.000000000000000E+000 0.000000000000000E+000
        </DataArray>
        <DataArray type="Float64"  Name="alpha" NumberOfComponents="3" format="ascii">
 0.100000000000000E+001 0.000000000000000E+000 0.000000000000000E+000
        </DataArray>
        <DataArray type="Float64"  Name="beta" NumberOfComponents="3" format="ascii">
 0.000000000000000E+000 0.612323400000000E-016-0.100000000000000E+001
        </DataArray>
        <DataArray type="Float64"  Name="gamma" NumberOfComponents="3" format="ascii">
 0.000000000000000E+000 0.100000000000000E+001 0.612323400000000E-016
        </DataArray>
      </PointData>
    </Piece>
    <Piece NumberOfPoints="           1" NumberOfCells="           1">
      <Points>
        <DataArray type="Float64" NumberOfComponents="3" Name="Point" format="ascii">
 0.000000000000000E+000 0.225000000000000E+001 0.200000000000000E+001
        </DataArray>
      </Points>
      <Cells>
        <DataArray type="Int32" Name="connectivity" format="ascii">
           0
        </DataArray>
        <DataArray type="Int32" Name="offsets" format="ascii">
           1
        </DataArray>
        <DataArray type="Int8" Name="types" format="ascii">
    1
        </DataArray>
      </Cells>
      <PointData>
        <DataArray type="Int32"  Name="Id" NumberOfComponents="1" format="ascii">
           5
        </DataArray>
        <DataArray type="Float64"  Name="displacement" NumberOfComponents="3" format="ascii">
 0.000000000000000E+000 0.000000000000000E+000 0.000000000000000E+000
        </DataArray>
        <DataArray type="Float64"  Name="velocity" NumberOfComponents="3" format="ascii">
 0.000000000000000E+000 0.000000000000000E+000 0.000000000000000E+000
        </DataArray>
        <DataArray type="Float64"  Name="Reac" NumberOfComponents="3" format="ascii">
 0.000000000000000E+000 0.000000000000000E+000 0.000000000000000E+000
        </DataArray>
        <DataArray type="Float64"  Name="Fext" NumberOfComponents="3" format="ascii">
 0.000000000000000E+000 0.000000000000000E+000 0.000000000000000E+000
        </DataArray>
        <DataArray type="Float64"  Name="alpha" NumberOfComponents="3" format="ascii">
 0.100000000000000E+001 0.162185200000000E-010 0.142553200000000E-010
        </DataArray>
        <DataArray type="Float64"  Name="beta" NumberOfComponents="3" format="ascii">
-0.142553200003793E-010 0.233839100000000E-010 0.100000000000000E+001
        </DataArray>
        <DataArray type="Float64"  Name="gamma" NumberOfComponents="3" format="ascii">
 0.162185199996667E-010-0.100000000000000E+001 0.233839100002312E-010
        </DataArray>
      </PointData>
    </Piece>
    <Piece NumberOfPoints="           1" NumberOfCells="           1">
      <Points>
        <DataArray type="Float64" NumberOfComponents="3" Name="Point" format="ascii">
 0.225000000000000E+001 0.000000000000000E+000 0.200000000000000E+001
        </DataArray>
      </Points>
      <Cells>
        <DataArray type="Int32" Name="connectivity" format="ascii">
           0
        </DataArray>
        <DataArray type="Int32" Name="offsets" format="ascii">
           1
        </DataArray>
        <DataArray type="Int8" Name="types" format="ascii">
    1
        </DataArray>
      </Cells>
      <PointData>
        <DataArray type="Int32"  Name="Id" NumberOfComponents="1" format="ascii">
           6
        </DataArray>
        <DataArray type="Float64"  Name="displacement" NumberOfComponents="3" format="ascii">
 0.000000000000000E+000 0.000000000000000E+000 0.000000000000000E+000
        </DataArray>
        <DataArray type="Float64"  Name="velocity" NumberOfComponents="3" format="ascii">
 0.000000000000000E+000 0.000000000000000E+000 0.000000000000000E+000
        </DataArray>
        <DataArray type="Float64"  Name="Reac" NumberOfComponents="3" format="ascii">
 0.000000000000000E+000 0.000000000000000E+000 0.000000000000000E+000
        </DataArray>
        <DataArray type="Float64"  Name="Fext" NumberOfComponents="3" format="ascii">
 0.000000000000000E+000 0.000000000000000E+000 0.000000000000000E+000
        </DataArray>
        <DataArray type="Float64"  Name="alpha" NumberOfComponents="3" format="ascii">
 0.612323400000000E-016 0.000000000000000E+000 0.100000000000000E+001
        </DataArray>
        <DataArray type="Float64"  Name="beta" NumberOfComponents="3" format="ascii">
 0.000000000000000E+000 0.100000000000000E+001 0.000000000000000E+000
        </DataArray>
        <DataArray type="Float64"  Name="gamma" NumberOfComponents="3" format="ascii">
-0.100000000000000E+001 0.000000000000000E+000 0.612323400000000E-016
        </DataArray>
      </PointData>
    </Piece>
    <Piece NumberOfPoints="           1" NumberOfCells="           1">
      <Points>
        <DataArray type="Float64" NumberOfComponents="3" Name="Point" format="ascii">
-0.225000000000000E+001 0.000000000000000E+000 0.200000000000000E+001
        </DataArray>
      </Points>
      <Cells>
        <DataArray type="Int32" Name="connectivity" format="ascii">
           0
        </DataArray>
        <DataArray type="Int32" Name="offsets" format="ascii">
           1
        </DataArray>
        <DataArray type="Int8" Name="types" format="ascii">
    1
        </DataArray>
      </Cells>
      <PointData>
        <DataArray type="Int32"  Name="Id" NumberOfComponents="1" format="ascii">
           7
        </DataArray>
        <DataArray type="Float64"  Name="displacement" NumberOfComponents="3" format="ascii">
 0.000000000000000E+000 0.000000000000000E+000 0.000000000000000E+000
        </DataArray>
        <DataArray type="Float64"  Name="velocity" NumberOfComponents="3" format="ascii">
 0.000000000000000E+000 0.000000000000000E+000 0.000000000000000E+000
        </DataArray>
        <DataArray type="Float64"  Name="Reac" NumberOfComponents="3" format="ascii">
 0.000000000000000E+000 0.000000000000000E+000 0.000000000000000E+000
        </DataArray>
        <DataArray type="Float64"  Name="Fext" NumberOfComponents="3" format="ascii">
 0.000000000000000E+000 0.000000000000000E+000 0.000000000000000E+000
        </DataArray>
        <DataArray type="Float64"  Name="alpha" NumberOfComponents="3" format="ascii">
 0.612323400000000E-016 0.000000000000000E+000-0.100000000000000E+001
        </DataArray>
        <DataArray type="Float64"  Name="beta" NumberOfComponents="3" format="ascii">
 0.000000000000000E+000 0.100000000000000E+001 0.000000000000000E+000
        </DataArray>
        <DataArray type="Float64"  Name="gamma" NumberOfComponents="3" format="ascii">
 0.100000000000000E+001 0.000000000000000E+000 0.612323400000000E-016
        </DataArray>
      </PointData>
    </Piece>
    <Piece NumberOfPoints="           1" NumberOfCells="           1">
      <Points>
        <DataArray type="Float64" NumberOfComponents="3" Name="Point" format="ascii">
 0.000000000000000E+000 0.000000000000000E+000 0.249999999999988E+001
        </DataArray>
      </Points>
      <Cells>
        <DataArray type="Int32" Name="connectivity" format="ascii">
           0
        </DataArray>
        <DataArray type="Int32" Name="offsets" format="ascii">
           1
        </DataArray>
        <DataArray type="Int8" Name="types" format="ascii">
    1
        </DataArray>
      </Cells>
      <PointData>
        <DataArray type="Int32"  Name="Id" NumberOfComponents="1" format="ascii">
           8
        </DataArray>
        <DataArray type="Float64"  Name="displacement" NumberOfComponents="3" format="ascii">
 0.000000000000000E+000 0.000000000000000E+000-0.150000000000012E+001
        </DataArray>
        <DataArray type="Float64"  Name="velocity" NumberOfComponents="3" format="ascii">
 0.000000000000000E+000 0.000000000000000E+000 0.102693398354231E-011
        </DataArray>
        <DataArray type="Float64"  Name="Reac" NumberOfComponents="3" format="ascii">
-0.373622141533422E+002 0.779668258400608E+001 0.999999819954343E+002
        </DataArray>
        <DataArray type="Float64"  Name="Fext" NumberOfComponents="3" format="ascii">
 0.000000000000000E+000 0.000000000000000E+000-0.100000000000000E+003
        </DataArray>
        <DataArray type="Float64"  Name="alpha" NumberOfComponents="3" format="ascii">
 0.100000000000000E+001 0.000000000000000E+000 0.000000000000000E+000
        </DataArray>
        <DataArray type="Float64"  Name="beta" NumberOfComponents="3" format="ascii">
 0.000000000000000E+000 0.100000000000000E+001 0.000000000000000E+000
        </DataArray>
        <DataArray type="Float64"  Name="gamma" NumberOfComponents="3" format="ascii">
 0.000000000000000E+000 0.000000000000000E+000 0.100000000000000E+001
        </DataArray>
      </PointData>
    </Piece>
  </UnstructuredGrid>
</VTKFile>
