<?xml version="1.0"?>
<VTKFile type="UnstructuredGrid" version="0.1" byte_order="BigEndian">
  <UnstructuredGrid>
    <Piece NumberOfPoints="           1" NumberOfCells="           1">
      <Points>
        <DataArray type="Float64" NumberOfComponents="3" Name="Point" format="ascii">
-0.631918802615486E-004 0.600794999968268E-002 0.749999799999933E+000
        </DataArray>
      </Points>
      <Cells>
        <DataArray type="Int32" Name="connectivity" format="ascii">
           0
        </DataArray>
        <DataArray type="Int32" Name="offsets" format="ascii">
           1
        </DataArray>
        <DataArray type="Int8" Name="types" format="ascii">
    1
        </DataArray>
      </Cells>
      <PointData>
        <DataArray type="Int32"  Name="Id" NumberOfComponents="1" format="ascii">
           1
        </DataArray>
        <DataArray type="Float64"  Name="displacement" NumberOfComponents="3" format="ascii">
-0.631918802615556E-004 0.600794999968267E-002-0.750000200000067E+000
        </DataArray>
        <DataArray type="Float64"  Name="velocity" NumberOfComponents="3" format="ascii">
 0.611632792279536E-012 0.273113167129453E-012 0.905628404160995E-012
        </DataArray>
        <DataArray type="Float64"  Name="Reac" NumberOfComponents="3" format="ascii">
-0.165259449291230E-004-0.649015853968529E-005-0.238279370049277E-004
        </DataArray>
        <DataArray type="Float64"  Name="Fext" NumberOfComponents="3" format="ascii">
 0.000000000000000E+000 0.000000000000000E+000 0.000000000000000E+000
        </DataArray>
        <DataArray type="Float64"  Name="alpha" NumberOfComponents="3" format="ascii">
 0.999999999999992E+000 0.100193904143619E-006-0.711550386193788E-007
        </DataArray>
        <DataArray type="Float64"  Name="beta" NumberOfComponents="3" format="ascii">
-0.100193916215111E-006 0.999999999999981E+000-0.169650570314652E-006
        </DataArray>
        <DataArray type="Float64"  Name="gamma" NumberOfComponents="3" format="ascii">
 0.711550216214244E-007 0.169650577443952E-006 0.999999999999983E+000
        </DataArray>
      </PointData>
    </Piece>
    <Piece NumberOfPoints="           1" NumberOfCells="           1">
      <Points>
        <DataArray type="Float64" NumberOfComponents="3" Name="Point" format="ascii">
-0.355342404877615E-005-0.342436304501246E-005 0.175000009999998E+001
        </DataArray>
      </Points>
      <Cells>
        <DataArray type="Int32" Name="connectivity" format="ascii">
           0
        </DataArray>
        <DataArray type="Int32" Name="offsets" format="ascii">
           1
        </DataArray>
        <DataArray type="Int8" Name="types" format="ascii">
    1
        </DataArray>
      </Cells>
      <PointData>
        <DataArray type="Int32"  Name="Id" NumberOfComponents="1" format="ascii">
           2
        </DataArray>
        <DataArray type="Float64"  Name="displacement" NumberOfComponents="3" format="ascii">
-0.355342404878309E-005-0.342436304502634E-005-0.749999900000024E+000
        </DataArray>
        <DataArray type="Float64"  Name="velocity" NumberOfComponents="3" format="ascii">
 0.694451370852334E-012 0.623025878832291E-012 0.997872910819615E-012
        </DataArray>
        <DataArray type="Float64"  Name="Reac" NumberOfComponents="3" format="ascii">
-0.203490653253674E-004-0.163943626534961E-004-0.260202187024272E-004
        </DataArray>
        <DataArray type="Float64"  Name="Fext" NumberOfComponents="3" format="ascii">
 0.000000000000000E+000 0.000000000000000E+000 0.000000000000000E+000
        </DataArray>
        <DataArray type="Float64"  Name="alpha" NumberOfComponents="3" format="ascii">
 0.999999999994598E+000 0.328220304629717E-005 0.175264144733243E-006
        </DataArray>
        <DataArray type="Float64"  Name="beta" NumberOfComponents="3" format="ascii">
-0.328220308729885E-005 0.999999999994586E+000 0.233942402097606E-006
        </DataArray>
        <DataArray type="Float64"  Name="gamma" NumberOfComponents="3" format="ascii">
-0.175263376885829E-006-0.233942977348859E-006 0.999999999999957E+000
        </DataArray>
      </PointData>
    </Piece>
    <Piece NumberOfPoints="           1" NumberOfCells="           1">
      <Points>
        <DataArray type="Float64" NumberOfComponents="3" Name="Point" format="ascii">
 0.000000000000000E+000 0.000000000000000E+000 0.000000000000000E+000
        </DataArray>
      </Points>
      <Cells>
        <DataArray type="Int32" Name="connectivity" format="ascii">
           0
        </DataArray>
        <DataArray type="Int32" Name="offsets" format="ascii">
           1
        </DataArray>
        <DataArray type="Int8" Name="types" format="ascii">
    1
        </DataArray>
      </Cells>
      <PointData>
        <DataArray type="Int32"  Name="Id" NumberOfComponents="1" format="ascii">
           3
        </DataArray>
        <DataArray type="Float64"  Name="displacement" NumberOfComponents="3" format="ascii">
 0.000000000000000E+000 0.000000000000000E+000 0.000000000000000E+000
        </DataArray>
        <DataArray type="Float64"  Name="velocity" NumberOfComponents="3" format="ascii">
 0.000000000000000E+000 0.000000000000000E+000 0.000000000000000E+000
        </DataArray>
        <DataArray type="Float64"  Name="Reac" NumberOfComponents="3" format="ascii">
 0.369150077246298E+002-0.854669790339113E+001-0.999999275415198E+002
        </DataArray>
        <DataArray type="Float64"  Name="Fext" NumberOfComponents="3" format="ascii">
 0.000000000000000E+000 0.000000000000000E+000 0.000000000000000E+000
        </DataArray>
        <DataArray type="Float64"  Name="alpha" NumberOfComponents="3" format="ascii">
 0.100000000000000E+001 0.411052900000000E-011 0.237390400000000E-009
        </DataArray>
        <DataArray type="Float64"  Name="beta" NumberOfComponents="3" format="ascii">
-0.411053008587164E-011 0.100000000000000E+001 0.457420200000000E-008
        </DataArray>
        <DataArray type="Float64"  Name="gamma" NumberOfComponents="3" format="ascii">
-0.237390399981198E-009-0.457420200000098E-008 0.100000000000000E+001
        </DataArray>
      </PointData>
    </Piece>
    <Piece NumberOfPoints="           1" NumberOfCells="           1">
      <Points>
        <DataArray type="Float64" NumberOfComponents="3" Name="Point" format="ascii">
 0.000000000000000E+000-0.225000000000000E+001 0.200000000000000E+001
        </DataArray>
      </Points>
      <Cells>
        <DataArray type="Int32" Name="connectivity" format="ascii">
           0
        </DataArray>
        <DataArray type="Int32" Name="offsets" format="ascii">
           1
        </DataArray>
        <DataArray type="Int8" Name="types" format="ascii">
    1
        </DataArray>
      </Cells>
      <PointData>
        <DataArray type="Int32"  Name="Id" NumberOfComponents="1" format="ascii">
           4
        </DataArray>
        <DataArray type="Float64"  Name="displacement" NumberOfComponents="3" format="ascii">
 0.000000000000000E+000 0.000000000000000E+000 0.000000000000000E+000
        </DataArray>
        <DataArray type="Float64"  Name="velocity" NumberOfComponents="3" format="ascii">
 0.000000000000000E+000 0.000000000000000E+000 0.000000000000000E+000
        </DataArray>
        <DataArray type="Float64"  Name="Reac" NumberOfComponents="3" format="ascii">
 0.000000000000000E+000 0.000000000000000E+000 0.000000000000000E+000
        </DataArray>
        <DataArray type="Float64"  Name="Fext" NumberOfComponents="3" format="ascii">
 0.000000000000000E+000 0.000000000000000E+000 0.000000000000000E+000
        </DataArray>
        <DataArray type="Float64"  Name="alpha" NumberOfComponents="3" format="ascii">
 0.100000000000000E+001 0.000000000000000E+000 0.000000000000000E+000
        </DataArray>
        <DataArray type="Float64"  Name="beta" NumberOfComponents="3" format="ascii">
 0.000000000000000E+000 0.612323400000000E-016-0.100000000000000E+001
        </DataArray>
        <DataArray type="Float64"  Name="gamma" NumberOfComponents="3" format="ascii">
 0.000000000000000E+000 0.100000000000000E+001 0.612323400000000E-016
        </DataArray>
      </PointData>
    </Piece>
    <Piece NumberOfPoints="           1" NumberOfCells="           1">
      <Points>
        <DataArray type="Float64" NumberOfComponents="3" Name="Point" format="ascii">
 0.000000000000000E+000 0.225000000000000E+001 0.200000000000000E+001
        </DataArray>
      </Points>
      <Cells>
        <DataArray type="Int32" Name="connectivity" format="ascii">
           0
        </DataArray>
        <DataArray type="Int32" Name="offsets" format="ascii">
           1
        </DataArray>
        <DataArray type="Int8" Name="types" format="ascii">
    1
        </DataArray>
      </Cells>
      <PointData>
        <DataArray type="Int32"  Name="Id" NumberOfComponents="1" format="ascii">
           5
        </DataArray>
        <DataArray type="Float64"  Name="displacement" NumberOfComponents="3" format="ascii">
 0.000000000000000E+000 0.000000000000000E+000 0.000000000000000E+000
        </DataArray>
        <DataArray type="Float64"  Name="velocity" NumberOfComponents="3" format="ascii">
 0.000000000000000E+000 0.000000000000000E+000 0.000000000000000E+000
        </DataArray>
        <DataArray type="Float64"  Name="Reac" NumberOfComponents="3" format="ascii">
 0.000000000000000E+000 0.000000000000000E+000 0.000000000000000E+000
        </DataArray>
        <DataArray type="Float64"  Name="Fext" NumberOfComponents="3" format="ascii">
 0.000000000000000E+000 0.000000000000000E+000 0.000000000000000E+000
        </DataArray>
        <DataArray type="Float64"  Name="alpha" NumberOfComponents="3" format="ascii">
 0.100000000000000E+001 0.162185200000000E-010 0.142553200000000E-010
        </DataArray>
        <DataArray type="Float64"  Name="beta" NumberOfComponents="3" format="ascii">
-0.142553200003793E-010 0.233839100000000E-010 0.100000000000000E+001
        </DataArray>
        <DataArray type="Float64"  Name="gamma" NumberOfComponents="3" format="ascii">
 0.162185199996667E-010-0.100000000000000E+001 0.233839100002312E-010
        </DataArray>
      </PointData>
    </Piece>
    <Piece NumberOfPoints="           1" NumberOfCells="           1">
      <Points>
        <DataArray type="Float64" NumberOfComponents="3" Name="Point" format="ascii">
 0.225000000000000E+001 0.000000000000000E+000 0.200000000000000E+001
        </DataArray>
      </Points>
      <Cells>
        <DataArray type="Int32" Name="connectivity" format="ascii">
           0
        </DataArray>
        <DataArray type="Int32" Name="offsets" format="ascii">
           1
        </DataArray>
        <DataArray type="Int8" Name="types" format="ascii">
    1
        </DataArray>
      </Cells>
      <PointData>
        <DataArray type="Int32"  Name="Id" NumberOfComponents="1" format="ascii">
           6
        </DataArray>
        <DataArray type="Float64"  Name="displacement" NumberOfComponents="3" format="ascii">
 0.000000000000000E+000 0.000000000000000E+000 0.000000000000000E+000
        </DataArray>
        <DataArray type="Float64"  Name="velocity" NumberOfComponents="3" format="ascii">
 0.000000000000000E+000 0.000000000000000E+000 0.000000000000000E+000
        </DataArray>
        <DataArray type="Float64"  Name="Reac" NumberOfComponents="3" format="ascii">
 0.000000000000000E+000 0.000000000000000E+000 0.000000000000000E+000
        </DataArray>
        <DataArray type="Float64"  Name="Fext" NumberOfComponents="3" format="ascii">
 0.000000000000000E+000 0.000000000000000E+000 0.000000000000000E+000
        </DataArray>
        <DataArray type="Float64"  Name="alpha" NumberOfComponents="3" format="ascii">
 0.612323400000000E-016 0.000000000000000E+000 0.100000000000000E+001
        </DataArray>
        <DataArray type="Float64"  Name="beta" NumberOfComponents="3" format="ascii">
 0.000000000000000E+000 0.100000000000000E+001 0.000000000000000E+000
        </DataArray>
        <DataArray type="Float64"  Name="gamma" NumberOfComponents="3" format="ascii">
-0.100000000000000E+001 0.000000000000000E+000 0.612323400000000E-016
        </DataArray>
      </PointData>
    </Piece>
    <Piece NumberOfPoints="           1" NumberOfCells="           1">
      <Points>
        <DataArray type="Float64" NumberOfComponents="3" Name="Point" format="ascii">
-0.225000000000000E+001 0.000000000000000E+000 0.200000000000000E+001
        </DataArray>
      </Points>
      <Cells>
        <DataArray type="Int32" Name="connectivity" format="ascii">
           0
        </DataArray>
        <DataArray type="Int32" Name="offsets" format="ascii">
           1
        </DataArray>
        <DataArray type="Int8" Name="types" format="ascii">
    1
        </DataArray>
      </Cells>
      <PointData>
        <DataArray type="Int32"  Name="Id" NumberOfComponents="1" format="ascii">
           7
        </DataArray>
        <DataArray type="Float64"  Name="displacement" NumberOfComponents="3" format="ascii">
 0.000000000000000E+000 0.000000000000000E+000 0.000000000000000E+000
        </DataArray>
        <DataArray type="Float64"  Name="velocity" NumberOfComponents="3" format="ascii">
 0.000000000000000E+000 0.000000000000000E+000 0.000000000000000E+000
        </DataArray>
        <DataArray type="Float64"  Name="Reac" NumberOfComponents="3" format="ascii">
 0.000000000000000E+000 0.000000000000000E+000 0.000000000000000E+000
        </DataArray>
        <DataArray type="Float64"  Name="Fext" NumberOfComponents="3" format="ascii">
 0.000000000000000E+000 0.000000000000000E+000 0.000000000000000E+000
        </DataArray>
        <DataArray type="Float64"  Name="alpha" NumberOfComponents="3" format="ascii">
 0.612323400000000E-016 0.000000000000000E+000-0.100000000000000E+001
        </DataArray>
        <DataArray type="Float64"  Name="beta" NumberOfComponents="3" format="ascii">
 0.000000000000000E+000 0.100000000000000E+001 0.000000000000000E+000
        </DataArray>
        <DataArray type="Float64"  Name="gamma" NumberOfComponents="3" format="ascii">
 0.100000000000000E+001 0.000000000000000E+000 0.612323400000000E-016
        </DataArray>
      </PointData>
    </Piece>
    <Piece NumberOfPoints="           1" NumberOfCells="           1">
      <Points>
        <DataArray type="Float64" NumberOfComponents="3" Name="Point" format="ascii">
 0.000000000000000E+000 0.000000000000000E+000 0.249999999999988E+001
        </DataArray>
      </Points>
      <Cells>
        <DataArray type="Int32" Name="connectivity" format="ascii">
           0
        </DataArray>
        <DataArray type="Int32" Name="offsets" format="ascii">
           1
        </DataArray>
        <DataArray type="Int8" Name="types" format="ascii">
    1
        </DataArray>
      </Cells>
      <PointData>
        <DataArray type="Int32"  Name="Id" NumberOfComponents="1" format="ascii">
           8
        </DataArray>
        <DataArray type="Float64"  Name="displacement" NumberOfComponents="3" format="ascii">
 0.000000000000000E+000 0.000000000000000E+000-0.150000000000012E+001
        </DataArray>
        <DataArray type="Float64"  Name="velocity" NumberOfComponents="3" format="ascii">
 0.000000000000000E+000 0.000000000000000E+000 0.125199105542678E-011
        </DataArray>
        <DataArray type="Float64"  Name="Reac" NumberOfComponents="3" format="ascii">
-0.369149708496196E+002 0.854672078791232E+001 0.999999773896755E+002
        </DataArray>
        <DataArray type="Float64"  Name="Fext" NumberOfComponents="3" format="ascii">
 0.000000000000000E+000 0.000000000000000E+000-0.100000000000000E+003
        </DataArray>
        <DataArray type="Float64"  Name="alpha" NumberOfComponents="3" format="ascii">
 0.100000000000000E+001 0.000000000000000E+000 0.000000000000000E+000
        </DataArray>
        <DataArray type="Float64"  Name="beta" NumberOfComponents="3" format="ascii">
 0.000000000000000E+000 0.100000000000000E+001 0.000000000000000E+000
        </DataArray>
        <DataArray type="Float64"  Name="gamma" NumberOfComponents="3" format="ascii">
 0.000000000000000E+000 0.000000000000000E+000 0.100000000000000E+001
        </DataArray>
      </PointData>
    </Piece>
  </UnstructuredGrid>
</VTKFile>
