<?xml version="1.0"?>
<VTKFile type="UnstructuredGrid" version="0.1" byte_order="BigEndian">
  <UnstructuredGrid>
    <Piece NumberOfPoints="           1" NumberOfCells="           1">
      <Points>
        <DataArray type="Float64" NumberOfComponents="3" Name="Point" format="ascii">
-0.631918802611482E-004 0.600794999968285E-002 0.749999799999933E+000
        </DataArray>
      </Points>
      <Cells>
        <DataArray type="Int32" Name="connectivity" format="ascii">
           0
        </DataArray>
        <DataArray type="Int32" Name="offsets" format="ascii">
           1
        </DataArray>
        <DataArray type="Int8" Name="types" format="ascii">
    1
        </DataArray>
      </Cells>
      <PointData>
        <DataArray type="Int32"  Name="Id" NumberOfComponents="1" format="ascii">
           1
        </DataArray>
        <DataArray type="Float64"  Name="displacement" NumberOfComponents="3" format="ascii">
-0.631918802611551E-004 0.600794999968283E-002-0.750000200000067E+000
        </DataArray>
        <DataArray type="Float64"  Name="velocity" NumberOfComponents="3" format="ascii">
 0.189660112511783E-015 0.986909189915990E-017 0.510432435482934E-016
        </DataArray>
        <DataArray type="Float64"  Name="Reac" NumberOfComponents="3" format="ascii">
-0.368366734360887E-008-0.208635360803529E-009-0.895832209411515E-009
        </DataArray>
        <DataArray type="Float64"  Name="Fext" NumberOfComponents="3" format="ascii">
 0.000000000000000E+000 0.000000000000000E+000 0.000000000000000E+000
        </DataArray>
        <DataArray type="Float64"  Name="alpha" NumberOfComponents="3" format="ascii">
 0.999999999999992E+000 0.100193904355410E-006-0.711550386298259E-007
        </DataArray>
        <DataArray type="Float64"  Name="beta" NumberOfComponents="3" format="ascii">
-0.100193916426901E-006 0.999999999999981E+000-0.169650570546414E-006
        </DataArray>
        <DataArray type="Float64"  Name="gamma" NumberOfComponents="3" format="ascii">
 0.711550216318715E-007 0.169650577675715E-006 0.999999999999983E+000
        </DataArray>
      </PointData>
    </Piece>
    <Piece NumberOfPoints="           1" NumberOfCells="           1">
      <Points>
        <DataArray type="Float64" NumberOfComponents="3" Name="Point" format="ascii">
-0.355342404835799E-005-0.342436304465120E-005 0.175000009999998E+001
        </DataArray>
      </Points>
      <Cells>
        <DataArray type="Int32" Name="connectivity" format="ascii">
           0
        </DataArray>
        <DataArray type="Int32" Name="offsets" format="ascii">
           1
        </DataArray>
        <DataArray type="Int8" Name="types" format="ascii">
    1
        </DataArray>
      </Cells>
      <PointData>
        <DataArray type="Int32"  Name="Id" NumberOfComponents="1" format="ascii">
           2
        </DataArray>
        <DataArray type="Float64"  Name="displacement" NumberOfComponents="3" format="ascii">
-0.355342404836493E-005-0.342436304466508E-005-0.749999900000024E+000
        </DataArray>
        <DataArray type="Float64"  Name="velocity" NumberOfComponents="3" format="ascii">
 0.137559781798728E-015 0.222442138988931E-016 0.685518735269510E-016
        </DataArray>
        <DataArray type="Float64"  Name="Reac" NumberOfComponents="3" format="ascii">
-0.272769715125381E-008-0.497276205376799E-009-0.120666999070713E-008
        </DataArray>
        <DataArray type="Float64"  Name="Fext" NumberOfComponents="3" format="ascii">
 0.000000000000000E+000 0.000000000000000E+000 0.000000000000000E+000
        </DataArray>
        <DataArray type="Float64"  Name="alpha" NumberOfComponents="3" format="ascii">
 0.999999999994598E+000 0.328220304651642E-005 0.175264144696053E-006
        </DataArray>
        <DataArray type="Float64"  Name="beta" NumberOfComponents="3" format="ascii">
-0.328220308751810E-005 0.999999999994586E+000 0.233942401951097E-006
        </DataArray>
        <DataArray type="Float64"  Name="gamma" NumberOfComponents="3" format="ascii">
-0.175263376848640E-006-0.233942977202350E-006 0.999999999999957E+000
        </DataArray>
      </PointData>
    </Piece>
    <Piece NumberOfPoints="           1" NumberOfCells="           1">
      <Points>
        <DataArray type="Float64" NumberOfComponents="3" Name="Point" format="ascii">
 0.000000000000000E+000 0.000000000000000E+000 0.000000000000000E+000
        </DataArray>
      </Points>
      <Cells>
        <DataArray type="Int32" Name="connectivity" format="ascii">
           0
        </DataArray>
        <DataArray type="Int32" Name="offsets" format="ascii">
           1
        </DataArray>
        <DataArray type="Int8" Name="types" format="ascii">
    1
        </DataArray>
      </Cells>
      <PointData>
        <DataArray type="Int32"  Name="Id" NumberOfComponents="1" format="ascii">
           3
        </DataArray>
        <DataArray type="Float64"  Name="displacement" NumberOfComponents="3" format="ascii">
 0.000000000000000E+000 0.000000000000000E+000 0.000000000000000E+000
        </DataArray>
        <DataArray type="Float64"  Name="velocity" NumberOfComponents="3" format="ascii">
 0.000000000000000E+000 0.000000000000000E+000 0.000000000000000E+000
        </DataArray>
        <DataArray type="Float64"  Name="Reac" NumberOfComponents="3" format="ascii">
 0.398784635401368E+002-0.213216983633015E+001-0.999999999961412E+002
        </DataArray>
        <DataArray type="Float64"  Name="Fext" NumberOfComponents="3" format="ascii">
 0.000000000000000E+000 0.000000000000000E+000 0.000000000000000E+000
        </DataArray>
        <DataArray type="Float64"  Name="alpha" NumberOfComponents="3" format="ascii">
 0.100000000000000E+001 0.411052900000000E-011 0.237390400000000E-009
        </DataArray>
        <DataArray type="Float64"  Name="beta" NumberOfComponents="3" format="ascii">
-0.411053008587164E-011 0.100000000000000E+001 0.457420200000000E-008
        </DataArray>
        <DataArray type="Float64"  Name="gamma" NumberOfComponents="3" format="ascii">
-0.237390399981198E-009-0.457420200000098E-008 0.100000000000000E+001
        </DataArray>
      </PointData>
    </Piece>
    <Piece NumberOfPoints="           1" NumberOfCells="           1">
      <Points>
        <DataArray type="Float64" NumberOfComponents="3" Name="Point" format="ascii">
 0.000000000000000E+000-0.225000000000000E+001 0.200000000000000E+001
        </DataArray>
      </Points>
      <Cells>
        <DataArray type="Int32" Name="connectivity" format="ascii">
           0
        </DataArray>
        <DataArray type="Int32" Name="offsets" format="ascii">
           1
        </DataArray>
        <DataArray type="Int8" Name="types" format="ascii">
    1
        </DataArray>
      </Cells>
      <PointData>
        <DataArray type="Int32"  Name="Id" NumberOfComponents="1" format="ascii">
           4
        </DataArray>
        <DataArray type="Float64"  Name="displacement" NumberOfComponents="3" format="ascii">
 0.000000000000000E+000 0.000000000000000E+000 0.000000000000000E+000
        </DataArray>
        <DataArray type="Float64"  Name="velocity" NumberOfComponents="3" format="ascii">
 0.000000000000000E+000 0.000000000000000E+000 0.000000000000000E+000
        </DataArray>
        <DataArray type="Float64"  Name="Reac" NumberOfComponents="3" format="ascii">
 0.000000000000000E+000 0.000000000000000E+000 0.000000000000000E+000
        </DataArray>
        <DataArray type="Float64"  Name="Fext" NumberOfComponents="3" format="ascii">
 0.000000000000000E+000 0.000000000000000E+000 0.000000000000000E+000
        </DataArray>
        <DataArray type="Float64"  Name="alpha" NumberOfComponents="3" format="ascii">
 0.100000000000000E+001 0.000000000000000E+000 0.000000000000000E+000
        </DataArray>
        <DataArray type="Float64"  Name="beta" NumberOfComponents="3" format="ascii">
 0.000000000000000E+000 0.612323400000000E-016-0.100000000000000E+001
        </DataArray>
        <DataArray type="Float64"  Name="gamma" NumberOfComponents="3" format="ascii">
 0.000000000000000E+000 0.100000000000000E+001 0.612323400000000E-016
        </DataArray>
      </PointData>
    </Piece>
    <Piece NumberOfPoints="           1" NumberOfCells="           1">
      <Points>
        <DataArray type="Float64" NumberOfComponents="3" Name="Point" format="ascii">
 0.000000000000000E+000 0.225000000000000E+001 0.200000000000000E+001
        </DataArray>
      </Points>
      <Cells>
        <DataArray type="Int32" Name="connectivity" format="ascii">
           0
        </DataArray>
        <DataArray type="Int32" Name="offsets" format="ascii">
           1
        </DataArray>
        <DataArray type="Int8" Name="types" format="ascii">
    1
        </DataArray>
      </Cells>
      <PointData>
        <DataArray type="Int32"  Name="Id" NumberOfComponents="1" format="ascii">
           5
        </DataArray>
        <DataArray type="Float64"  Name="displacement" NumberOfComponents="3" format="ascii">
 0.000000000000000E+000 0.000000000000000E+000 0.000000000000000E+000
        </DataArray>
        <DataArray type="Float64"  Name="velocity" NumberOfComponents="3" format="ascii">
 0.000000000000000E+000 0.000000000000000E+000 0.000000000000000E+000
        </DataArray>
        <DataArray type="Float64"  Name="Reac" NumberOfComponents="3" format="ascii">
 0.000000000000000E+000 0.000000000000000E+000 0.000000000000000E+000
        </DataArray>
        <DataArray type="Float64"  Name="Fext" NumberOfComponents="3" format="ascii">
 0.000000000000000E+000 0.000000000000000E+000 0.000000000000000E+000
        </DataArray>
        <DataArray type="Float64"  Name="alpha" NumberOfComponents="3" format="ascii">
 0.100000000000000E+001 0.162185200000000E-010 0.142553200000000E-010
        </DataArray>
        <DataArray type="Float64"  Name="beta" NumberOfComponents="3" format="ascii">
-0.142553200003793E-010 0.233839100000000E-010 0.100000000000000E+001
        </DataArray>
        <DataArray type="Float64"  Name="gamma" NumberOfComponents="3" format="ascii">
 0.162185199996667E-010-0.100000000000000E+001 0.233839100002312E-010
        </DataArray>
      </PointData>
    </Piece>
    <Piece NumberOfPoints="           1" NumberOfCells="           1">
      <Points>
        <DataArray type="Float64" NumberOfComponents="3" Name="Point" format="ascii">
 0.225000000000000E+001 0.000000000000000E+000 0.200000000000000E+001
        </DataArray>
      </Points>
      <Cells>
        <DataArray type="Int32" Name="connectivity" format="ascii">
           0
        </DataArray>
        <DataArray type="Int32" Name="offsets" format="ascii">
           1
        </DataArray>
        <DataArray type="Int8" Name="types" format="ascii">
    1
        </DataArray>
      </Cells>
      <PointData>
        <DataArray type="Int32"  Name="Id" NumberOfComponents="1" format="ascii">
           6
        </DataArray>
        <DataArray type="Float64"  Name="displacement" NumberOfComponents="3" format="ascii">
 0.000000000000000E+000 0.000000000000000E+000 0.000000000000000E+000
        </DataArray>
        <DataArray type="Float64"  Name="velocity" NumberOfComponents="3" format="ascii">
 0.000000000000000E+000 0.000000000000000E+000 0.000000000000000E+000
        </DataArray>
        <DataArray type="Float64"  Name="Reac" NumberOfComponents="3" format="ascii">
 0.000000000000000E+000 0.000000000000000E+000 0.000000000000000E+000
        </DataArray>
        <DataArray type="Float64"  Name="Fext" NumberOfComponents="3" format="ascii">
 0.000000000000000E+000 0.000000000000000E+000 0.000000000000000E+000
        </DataArray>
        <DataArray type="Float64"  Name="alpha" NumberOfComponents="3" format="ascii">
 0.612323400000000E-016 0.000000000000000E+000 0.100000000000000E+001
        </DataArray>
        <DataArray type="Float64"  Name="beta" NumberOfComponents="3" format="ascii">
 0.000000000000000E+000 0.100000000000000E+001 0.000000000000000E+000
        </DataArray>
        <DataArray type="Float64"  Name="gamma" NumberOfComponents="3" format="ascii">
-0.100000000000000E+001 0.000000000000000E+000 0.612323400000000E-016
        </DataArray>
      </PointData>
    </Piece>
    <Piece NumberOfPoints="           1" NumberOfCells="           1">
      <Points>
        <DataArray type="Float64" NumberOfComponents="3" Name="Point" format="ascii">
-0.225000000000000E+001 0.000000000000000E+000 0.200000000000000E+001
        </DataArray>
      </Points>
      <Cells>
        <DataArray type="Int32" Name="connectivity" format="ascii">
           0
        </DataArray>
        <DataArray type="Int32" Name="offsets" format="ascii">
           1
        </DataArray>
        <DataArray type="Int8" Name="types" format="ascii">
    1
        </DataArray>
      </Cells>
      <PointData>
        <DataArray type="Int32"  Name="Id" NumberOfComponents="1" format="ascii">
           7
        </DataArray>
        <DataArray type="Float64"  Name="displacement" NumberOfComponents="3" format="ascii">
 0.000000000000000E+000 0.000000000000000E+000 0.000000000000000E+000
        </DataArray>
        <DataArray type="Float64"  Name="velocity" NumberOfComponents="3" format="ascii">
 0.000000000000000E+000 0.000000000000000E+000 0.000000000000000E+000
        </DataArray>
        <DataArray type="Float64"  Name="Reac" NumberOfComponents="3" format="ascii">
 0.000000000000000E+000 0.000000000000000E+000 0.000000000000000E+000
        </DataArray>
        <DataArray type="Float64"  Name="Fext" NumberOfComponents="3" format="ascii">
 0.000000000000000E+000 0.000000000000000E+000 0.000000000000000E+000
        </DataArray>
        <DataArray type="Float64"  Name="alpha" NumberOfComponents="3" format="ascii">
 0.612323400000000E-016 0.000000000000000E+000-0.100000000000000E+001
        </DataArray>
        <DataArray type="Float64"  Name="beta" NumberOfComponents="3" format="ascii">
 0.000000000000000E+000 0.100000000000000E+001 0.000000000000000E+000
        </DataArray>
        <DataArray type="Float64"  Name="gamma" NumberOfComponents="3" format="ascii">
 0.100000000000000E+001 0.000000000000000E+000 0.612323400000000E-016
        </DataArray>
      </PointData>
    </Piece>
    <Piece NumberOfPoints="           1" NumberOfCells="           1">
      <Points>
        <DataArray type="Float64" NumberOfComponents="3" Name="Point" format="ascii">
 0.000000000000000E+000 0.000000000000000E+000 0.249999999999988E+001
        </DataArray>
      </Points>
      <Cells>
        <DataArray type="Int32" Name="connectivity" format="ascii">
           0
        </DataArray>
        <DataArray type="Int32" Name="offsets" format="ascii">
           1
        </DataArray>
        <DataArray type="Int8" Name="types" format="ascii">
    1
        </DataArray>
      </Cells>
      <PointData>
        <DataArray type="Int32"  Name="Id" NumberOfComponents="1" format="ascii">
           8
        </DataArray>
        <DataArray type="Float64"  Name="displacement" NumberOfComponents="3" format="ascii">
 0.000000000000000E+000 0.000000000000000E+000-0.150000000000012E+001
        </DataArray>
        <DataArray type="Float64"  Name="velocity" NumberOfComponents="3" format="ascii">
 0.000000000000000E+000 0.000000000000000E+000 0.132625877782237E-015
        </DataArray>
        <DataArray type="Float64"  Name="Reac" NumberOfComponents="3" format="ascii">
-0.398784635337254E+002 0.213216983703607E+001 0.999999999982438E+002
        </DataArray>
        <DataArray type="Float64"  Name="Fext" NumberOfComponents="3" format="ascii">
 0.000000000000000E+000 0.000000000000000E+000-0.100000000000000E+003
        </DataArray>
        <DataArray type="Float64"  Name="alpha" NumberOfComponents="3" format="ascii">
 0.100000000000000E+001 0.000000000000000E+000 0.000000000000000E+000
        </DataArray>
        <DataArray type="Float64"  Name="beta" NumberOfComponents="3" format="ascii">
 0.000000000000000E+000 0.100000000000000E+001 0.000000000000000E+000
        </DataArray>
        <DataArray type="Float64"  Name="gamma" NumberOfComponents="3" format="ascii">
 0.000000000000000E+000 0.000000000000000E+000 0.100000000000000E+001
        </DataArray>
      </PointData>
    </Piece>
  </UnstructuredGrid>
</VTKFile>
